Pt cube particle                        
           1
    18.000000    0.000000    0.000000
     0.000000   18.000000    0.000000
     0.000000    0.000000   18.000000
   U 
    38
Direct configuration=     1
   0.72257430  0.57309990  0.50020326
   0.57310093  0.72257403  0.50020304
   0.27768266  0.57328361  0.50008765
   0.42649001  0.72224946  0.50032579
   0.27752107  0.42669729  0.49967158
   0.42669656  0.27752145  0.49967177
   0.72224904  0.42648933  0.50032604
   0.57328263  0.27768254  0.50008798
   0.66896875  0.49995173  0.61818177
   0.33052645  0.49955494  0.61777083
   0.49995230  0.66896893  0.61818181
   0.49955423  0.33052680  0.61777078
   0.64859535  0.64859483  0.60775332
   0.35179083  0.64787838  0.60867190
   0.35095914  0.35095981  0.60785692
   0.64787761  0.35179055  0.60867192
   0.66669582  0.49992260  0.38142030
   0.33324668  0.50023761  0.38106483
   0.49992331  0.66669587  0.38141995
   0.50023715  0.33324678  0.38106528
   0.64822278  0.64822213  0.39408735
   0.35147837  0.64865839  0.39385916
   0.35173155  0.35173198  0.39365192
   0.64865782  0.35147791  0.39385971
   0.57638974  0.57638949  0.70826448
   0.42473085  0.57491493  0.70837530
   0.42323825  0.42323859  0.70830097
   0.57491455  0.42473071  0.70837515
   0.57501197  0.57501134  0.28935832
   0.42501837  0.57524295  0.28921835
   0.42516456  0.42516441  0.28927688
   0.57524302  0.42501779  0.28921884
   0.49988834  0.49988836  0.60266917
   0.42580374  0.42580397  0.49972068
   0.42585642  0.57400848  0.49972903
   0.49998908  0.49998890  0.39412654
   0.57405800  0.57405761  0.49977677
   0.57400827  0.42585608  0.49972915
Direct configuration=     2
   0.72422365  0.57347588  0.50015453
   0.57347655  0.72422361  0.50015397
   0.27606516  0.57368625  0.50002743
   0.42609189  0.72387023  0.50026319
   0.27588999  0.42630246  0.49961704
   0.42630183  0.27589034  0.49961719
   0.72387018  0.42609148  0.50026373
   0.57368479  0.27606564  0.50002777
   0.67112696  0.49994856  0.61986079
   0.32839439  0.49955306  0.61947115
   0.49994860  0.67112728  0.61986099
   0.49955225  0.32839414  0.61947021
   0.64970474  0.64970369  0.60864724
   0.35071461  0.64894745  0.60961041
   0.34985237  0.34985308  0.60878073
   0.64894664  0.35071427  0.60960991
   0.66905888  0.49991511  0.37975082
   0.33089270  0.50024705  0.37938291
   0.49991564  0.66905928  0.37975097
   0.50024669  0.33089252  0.37938380
   0.64926662  0.64926604  0.39303965
   0.35041973  0.64971685  0.39277960
   0.35069282  0.35069339  0.39258485
   0.64971645  0.35041834  0.39277969
   0.57692207  0.57692173  0.70979710
   0.42428184  0.57533675  0.70984059
   0.42271434  0.42271516  0.70980710
   0.57533638  0.42428217  0.70984127
   0.57569664  0.57569546  0.28793787
   0.42430315  0.57595801  0.28778971
   0.42448792  0.42448758  0.28786249
   0.57595787  0.42430318  0.28778987
   0.49987143  0.49987119  0.60287144
   0.42586922  0.42586889  0.49975447
   0.42592331  0.57394305  0.49974884
   0.49997933  0.49997858  0.39449541
   0.57399059  0.57398964  0.49983064
   0.57394225  0.42592307  0.49974914
Direct configuration=     3
   0.72917170  0.57460381  0.50000833
   0.57460342  0.72917238  0.50000675
   0.27121266  0.57489418  0.49984676
   0.42489751  0.72873255  0.50007538
   0.27099677  0.42511796  0.49945343
   0.42511764  0.27099702  0.49945344
   0.72873362  0.42489793  0.50007681
   0.57489126  0.27121492  0.49984716
   0.67760158  0.49993906  0.62489784
   0.32199822  0.49954741  0.62457209
   0.49993747  0.67760233  0.62489853
   0.49954630  0.32199618  0.62456847
   0.65303291  0.65303029  0.61132899
   0.34748594  0.65215465  0.61242595
   0.34653207  0.34653286  0.61155216
   0.65215373  0.34748541  0.61242391
   0.67614803  0.49989264  0.37474237
   0.32383077  0.50027536  0.37433714
   0.49989265  0.67614952  0.37474402
   0.50027533  0.32382974  0.37433933
   0.65239815  0.65239777  0.38989656
   0.34724383  0.65289221  0.38954094
   0.34757665  0.34757762  0.38938367
   0.65289235  0.34723964  0.38953960
   0.57851906  0.57851846  0.71439496
   0.42293480  0.57660222  0.71423648
   0.42114262  0.42114488  0.71432548
   0.57660186  0.42293656  0.71423961
   0.57775067  0.57774781  0.28367652
   0.42215748  0.57810317  0.28350380
   0.42245801  0.42245711  0.28361930
   0.57810244  0.42215934  0.28350295
   0.49982071  0.49981968  0.60347826
   0.42606564  0.42606368  0.49985585
   0.42612399  0.57374676  0.49980825
   0.49995008  0.49994762  0.39560204
   0.57378837  0.57378572  0.49999227
   0.57374418  0.42612402  0.49980911
Direct configuration=     4
   0.73906780  0.57685967  0.49971593
   0.57685716  0.73906990  0.49971231
   0.26150768  0.57731004  0.49948543
   0.42250875  0.73845720  0.49969976
   0.26121032  0.42274895  0.49912620
   0.42274927  0.26121037  0.49912594
   0.73846049  0.42251083  0.49970296
   0.57730419  0.26151349  0.49948595
   0.69055083  0.49992007  0.63497195
   0.30920587  0.49953611  0.63477397
   0.49991523  0.69055244  0.63497362
   0.49953442  0.30920025  0.63476500
   0.65968927  0.65968349  0.61669248
   0.34102860  0.65856907  0.61805702
   0.33989147  0.33989244  0.61709501
   0.65856790  0.34102769  0.61805190
   0.69032635  0.49984770  0.36472547
   0.30970691  0.50033198  0.36424561
   0.49984665  0.69033000  0.36473013
   0.50033259  0.30970418  0.36425041
   0.65866120  0.65866122  0.38361037
   0.34089203  0.65924292  0.38306362
   0.34134430  0.34134607  0.38298129
   0.65924416  0.34088224  0.38305944
   0.58171305  0.58171191  0.72359067
   0.42024072  0.57913316  0.72302826
   0.41799917  0.41800432  0.72336225
   0.57913283  0.42024534  0.72303629
   0.58185872  0.58185252  0.27515382
   0.41786614  0.58239348  0.27493196
   0.41839819  0.41839617  0.27513293
   0.58239158  0.41787165  0.27492911
   0.49971926  0.49971666  0.60469190
   0.42645850  0.42645324  0.50005861
   0.42652535  0.57335419  0.49992708
   0.49989158  0.49988571  0.39781529
   0.57338392  0.57337787  0.50031553
   0.57334804  0.42652593  0.49992904
Direct configuration=     5
   0.73601993  0.57616489  0.49980598
   0.57616304  0.73602159  0.49980299
   0.26449669  0.57656598  0.49959672
   0.42324446  0.73546213  0.49981545
   0.26422442  0.42347857  0.49922698
   0.42347870  0.26422454  0.49922681
   0.73546473  0.42324603  0.49981810
   0.57656104  0.26450141  0.49959720
   0.68656262  0.49992592  0.63186925
   0.31314575  0.49953959  0.63163192
   0.49992208  0.68656397  0.63187062
   0.49953808  0.31314124  0.63162460
   0.65763919  0.65763439  0.61504059
   0.34301738  0.65659351  0.61632272
   0.34193669  0.34193761  0.61538788
   0.65659242  0.34301659  0.61631855
   0.68595960  0.49986154  0.36781055
   0.31405688  0.50031454  0.36735367
   0.49986082  0.68596259  0.36781428
   0.50031496  0.31405467  0.36735767
   0.65673226  0.65673215  0.38554644
   0.34284831  0.65728698  0.38505855
   0.34326378  0.34326531  0.38495314
   0.65728788  0.34284024  0.38505525
   0.58072934  0.58072837  0.72075850
   0.42107046  0.57835366  0.72032050
   0.41896731  0.41897157  0.72057904
   0.57835333  0.42107420  0.72032702
   0.58059349  0.58058832  0.27777871
   0.41918781  0.58107212  0.27757198
   0.41964857  0.41964689  0.27774663
   0.58107058  0.41919221  0.27756975
   0.49975051  0.49974839  0.60431812
   0.42633750  0.42633326  0.49999616
   0.42640174  0.57347510  0.49989048
   0.49990959  0.49990478  0.39713363
   0.57350849  0.57350348  0.50021597
   0.57347004  0.42640214  0.49989210
Direct configuration=     6
   0.73667037  0.57568223  0.49979333
   0.57569930  0.73667352  0.49979252
   0.26390189  0.57612753  0.49958385
   0.42367161  0.73606377  0.49979223
   0.26361691  0.42393192  0.49923641
   0.42391764  0.26361578  0.49923077
   0.73606444  0.42369683  0.49978636
   0.57612574  0.26390575  0.49957357
   0.68848403  0.49992023  0.63325043
   0.31122000  0.49954529  0.63301913
   0.49990966  0.68847287  0.63326750
   0.49953482  0.31122083  0.63301712
   0.65785708  0.65783464  0.61593030
   0.34281746  0.65677095  0.61727457
   0.34171411  0.34172485  0.61629918
   0.65678801  0.34282982  0.61726845
   0.68796975  0.49987187  0.36629977
   0.31205591  0.50031484  0.36583941
   0.49986646  0.68795486  0.36628322
   0.50030845  0.31205232  0.36584168
   0.65689719  0.65687477  0.38448683
   0.34266115  0.65746222  0.38394570
   0.34310098  0.34310518  0.38385584
   0.65748599  0.34265926  0.38395006
   0.58147055  0.58146402  0.72115840
   0.42054682  0.57887370  0.72060277
   0.41821093  0.41822830  0.72100106
   0.57887846  0.42056387  0.72061016
   0.58119125  0.58118255  0.27767035
   0.41853561  0.58171635  0.27740746
   0.41906543  0.41907684  0.27759133
   0.58172438  0.41854709  0.27740949
   0.49975322  0.49975553  0.60946464
   0.42249153  0.42249591  0.50008452
   0.42257699  0.57731026  0.49993647
   0.49990665  0.49991013  0.39217182
   0.57732161  0.57730978  0.50034376
   0.57731807  0.42258400  0.49993406
Direct configuration=     7
   0.73709842  0.57536460  0.49978500
   0.57539411  0.73710256  0.49978562
   0.26351046  0.57583899  0.49957538
   0.42395272  0.73645971  0.49977695
   0.26321711  0.42423026  0.49924262
   0.42420651  0.26321516  0.49923338
   0.73645910  0.42399350  0.49976547
   0.57583927  0.26351375  0.49955801
   0.68974849  0.49991649  0.63415937
   0.30995268  0.49954905  0.63393204
   0.49990149  0.68972910  0.63418677
   0.49953268  0.30995703  0.63393353
   0.65800048  0.65796642  0.61651581
   0.34268590  0.65688772  0.61790097
   0.34156763  0.34158484  0.61689889
   0.65691673  0.34270691  0.61789357
   0.68929262  0.49987866  0.36530553
   0.31073909  0.50031504  0.36484288
   0.49987017  0.68926596  0.36527565
   0.50030416  0.31073459  0.36484401
   0.65700573  0.65696862  0.38378951
   0.34253798  0.65757754  0.38321335
   0.34299384  0.34299979  0.38313371
   0.65761636  0.34254015  0.38322275
   0.58195833  0.58194815  0.72142157
   0.42020221  0.57921594  0.72078854
   0.41771316  0.41773916  0.72127880
   0.57922405  0.42022803  0.72079649
   0.58158463  0.58157361  0.27759905
   0.41810641  0.58214031  0.27729919
   0.41868167  0.41870170  0.27748913
   0.58215464  0.41812254  0.27730402
   0.49975501  0.49976023  0.61285153
   0.41996053  0.41997057  0.50014266
   0.42005996  0.57983415  0.49996674
   0.49990471  0.49991366  0.38890648
   0.57983100  0.57981467  0.50042785
   0.57985043  0.42007130  0.49996167
Direct configuration=     8
   0.73795453  0.57472933  0.49976834
   0.57478374  0.73796062  0.49977184
   0.26272759  0.57526190  0.49955845
   0.42451493  0.73725158  0.49974639
   0.26241752  0.42482695  0.49925503
   0.42478424  0.26241391  0.49923860
   0.73724842  0.42458684  0.49972369
   0.57526634  0.26272975  0.49952691
   0.69227743  0.49990900  0.63597726
   0.30741804  0.49955656  0.63575787
   0.49988514  0.69224157  0.63602532
   0.49952839  0.30742942  0.63576634
   0.65828726  0.65822999  0.61768683
   0.34242277  0.65712126  0.61915378
   0.34127467  0.34130481  0.61809833
   0.65717416  0.34246109  0.61914382
   0.69193835  0.49989226  0.36331706
   0.30810544  0.50031543  0.36284983
   0.49987759  0.69188817  0.36326049
   0.50029559  0.30809912  0.36284869
   0.65722281  0.65715632  0.38239487
   0.34229165  0.65780818  0.38174863
   0.34277957  0.34278903  0.38168946
   0.65787711  0.34230195  0.38176812
   0.58293389  0.58291640  0.72194791
   0.41951300  0.57990041  0.72116006
   0.41671762  0.41676088  0.72183426
   0.57991523  0.41955635  0.72116915
   0.58237140  0.58235572  0.27745643
   0.41724799  0.58298823  0.27708266
   0.41791416  0.41795141  0.27728472
   0.58301517  0.41727345  0.27709309
   0.49975858  0.49976964  0.61962531
   0.41489851  0.41491990  0.50025895
   0.41502588  0.58488194  0.50002727
   0.49990083  0.49992070  0.38237580
   0.58484979  0.58482446  0.50059605
   0.58491515  0.41504590  0.50001690
Direct configuration=     9
   0.73770829  0.57491205  0.49977313
   0.57495930  0.73771382  0.49977580
   0.26295276  0.57542788  0.49956332
   0.42435323  0.73702382  0.49975518
   0.26264750  0.42465533  0.49925146
   0.42461807  0.26264437  0.49923710
   0.73702139  0.42441618  0.49973571
   0.57543113  0.26295525  0.49953585
   0.69155004  0.49991116  0.63545439
   0.30814707  0.49955440  0.63523271
   0.49988984  0.69151892  0.63549650
   0.49952962  0.30815643  0.63523918
   0.65820477  0.65815418  0.61735001
   0.34249845  0.65705409  0.61879344
   0.34135893  0.34138535  0.61775334
   0.65710012  0.34253180  0.61878422
   0.69117737  0.49988835  0.36388900
   0.30886295  0.50031532  0.36342308
   0.49987545  0.69113395  0.36384010
   0.50029806  0.30885715  0.36342260
   0.65716037  0.65710233  0.38279601
   0.34236250  0.65774184  0.38216992
   0.34284120  0.34284965  0.38210486
   0.65780211  0.34237046  0.38218651
   0.58265329  0.58263791  0.72179652
   0.41971124  0.57970353  0.72105320
   0.41700397  0.41704226  0.72167449
   0.57971643  0.41974955  0.72106196
   0.58214510  0.58213076  0.27749745
   0.41749489  0.58274435  0.27714494
   0.41813491  0.41816722  0.27734352
   0.58276766  0.41751767  0.27715376
   0.49975756  0.49976693  0.61767699
   0.41635448  0.41637261  0.50022550
   0.41647382  0.58343006  0.50000986
   0.49990195  0.49991868  0.38425420
   0.58340625  0.58338351  0.50054767
   0.58345840  0.41649134  0.50000102
Direct configuration=    10
   0.73652036  0.57399929  0.49980979
   0.57403287  0.73651381  0.49980616
   0.26426445  0.57456957  0.49958978
   0.42521189  0.73572385  0.49977287
   0.26394194  0.42554751  0.49929723
   0.42552177  0.26394040  0.49927013
   0.73572609  0.42524896  0.49975910
   0.57457462  0.26427658  0.49954789
   0.69217154  0.49988847  0.63590160
   0.30750161  0.49957935  0.63566250
   0.49986945  0.69213559  0.63593959
   0.49955639  0.30751729  0.63565563
   0.65746412  0.65742595  0.61766690
   0.34323084  0.65632051  0.61921316
   0.34203541  0.34207050  0.61815991
   0.65636513  0.34326191  0.61918988
   0.69176617  0.49991218  0.36334447
   0.30826076  0.50029200  0.36290762
   0.49990714  0.69172230  0.36330031
   0.50028349  0.30825860  0.36291314
   0.65635296  0.65631641  0.38248217
   0.34310003  0.65700374  0.38168882
   0.34361101  0.34360933  0.38169118
   0.65704628  0.34309335  0.38171449
   0.58311409  0.58310237  0.72080689
   0.41977325  0.57966625  0.71974985
   0.41652385  0.41657553  0.72074274
   0.57968332  0.41981714  0.71975541
   0.58208066  0.58207705  0.27883157
   0.41740700  0.58283310  0.27836168
   0.41822257  0.41824798  0.27865650
   0.58285030  0.41741750  0.27838055
   0.49978019  0.49978963  0.61750509
   0.41617256  0.41619016  0.50017489
   0.41627044  0.58363302  0.49999966
   0.49989519  0.49990709  0.38422286
   0.58358110  0.58357450  0.50054310
   0.58365962  0.41627164  0.49998941
Direct configuration=    11
   0.73314184  0.57140337  0.49991406
   0.57139807  0.73310093  0.49989252
   0.26799493  0.57212851  0.49966504
   0.42765397  0.73202672  0.49982320
   0.26762337  0.42808489  0.49942739
   0.42809191  0.26762634  0.49936408
   0.73204224  0.42761740  0.49982563
   0.57213871  0.26803449  0.49958210
   0.69393913  0.49982395  0.63717348
   0.30566592  0.49965033  0.63688485
   0.49981146  0.69388942  0.63719975
   0.49963252  0.30569957  0.63684003
   0.65535767  0.65535484  0.61856814
   0.34531376  0.65423419  0.62040686
   0.34395933  0.34401908  0.61931621
   0.65427483  0.34533839  0.62034359
   0.69344073  0.49997997  0.36179581
   0.30654811  0.50022569  0.36144160
   0.49999724  0.69339558  0.36176512
   0.50024207  0.30655630  0.36146423
   0.65405666  0.65408122  0.38158959
   0.34519757  0.65490455  0.38032057
   0.34580039  0.34576990  0.38051464
   0.65489668  0.34514927  0.38037203
   0.58442460  0.58442331  0.71799234
   0.41994963  0.57956022  0.71604309
   0.41515838  0.41524814  0.71809280
   0.57958914  0.42000938  0.71603956
   0.58189739  0.58192429  0.28262586
   0.41715702  0.58308553  0.28182214
   0.41847187  0.41847769  0.28239065
   0.58308534  0.41713261  0.28186955
   0.49984456  0.49985419  0.61701620
   0.41565518  0.41567125  0.50003094
   0.41569202  0.58421026  0.49997065
   0.49987598  0.49987415  0.38413372
   0.58407837  0.58411768  0.50053010
   0.58423189  0.41564681  0.49995640
Direct configuration=    12
   0.73157268  0.57153311  0.49992547
   0.57153174  0.73153303  0.49991080
   0.26963991  0.57247306  0.49962480
   0.42724666  0.73040249  0.49977813
   0.26934348  0.42786016  0.49946448
   0.42786156  0.26934511  0.49940697
   0.73042564  0.42721985  0.49978425
   0.57248464  0.26966589  0.49955563
   0.69451072  0.49973979  0.63786811
   0.30510733  0.49970285  0.63753242
   0.49972519  0.69446289  0.63789391
   0.49968164  0.30515589  0.63748596
   0.65571774  0.65572074  0.61855283
   0.34524218  0.65432042  0.62089566
   0.34352590  0.34357723  0.61954809
   0.65433931  0.34527271  0.62084856
   0.69407748  0.50004238  0.36118790
   0.30585338  0.50016728  0.36089376
   0.50005447  0.69405167  0.36115242
   0.50017767  0.30585855  0.36090518
   0.65423680  0.65425572  0.38151737
   0.34484222  0.65525750  0.37999707
   0.34556652  0.34553192  0.38019184
   0.65525134  0.34479190  0.38003845
   0.58471585  0.58471029  0.71824292
   0.42102672  0.57848518  0.71543301
   0.41486862  0.41493942  0.71843375
   0.57851896  0.42106786  0.71539966
   0.58107626  0.58109578  0.28299409
   0.41754864  0.58269834  0.28180015
   0.41937119  0.41937273  0.28274136
   0.58269725  0.41752924  0.28185369
   0.49983595  0.49983240  0.61591341
   0.41608472  0.41610050  0.50005340
   0.41612262  0.58384106  0.49983472
   0.49987325  0.49986408  0.38496899
   0.58372198  0.58375786  0.50054498
   0.58385225  0.41609358  0.49983034
Direct configuration=    13
   0.72743534  0.57187519  0.49995557
   0.57188418  0.72739899  0.49995900
   0.27397718  0.57338153  0.49951869
   0.42617273  0.72611993  0.49965928
   0.27387884  0.42726760  0.49956229
   0.42725422  0.27387692  0.49952005
   0.72616321  0.42617166  0.49967514
   0.57339675  0.27396735  0.49948583
   0.69601782  0.49951787  0.63969963
   0.30363452  0.49984132  0.63923986
   0.49949771  0.69597492  0.63972420
   0.49981117  0.30372238  0.63918906
   0.65666710  0.65668550  0.61851247
   0.34505347  0.65454778  0.62218445
   0.34238309  0.34241223  0.62015947
   0.65450932  0.34509955  0.62217998
   0.69575638  0.50020696  0.35958504
   0.30402161  0.50001325  0.35944927
   0.50020535  0.69578154  0.35953693
   0.50000787  0.30401880  0.35943115
   0.65471178  0.65471583  0.38132694
   0.34390527  0.65618811  0.37914413
   0.34494989  0.34490446  0.37934074
   0.65618649  0.34384963  0.37915891
   0.58548377  0.58546698  0.71890362
   0.42386665  0.57565065  0.71382442
   0.41410462  0.41412540  0.71933271
   0.57569726  0.42385872  0.71371244
   0.57891119  0.57891128  0.28396498
   0.41858124  0.58167745  0.28174215
   0.42174238  0.42173266  0.28366606
   0.58167397  0.41857500  0.28181186
   0.49981322  0.49977496  0.61300572
   0.41721727  0.41723229  0.50011263
   0.41725799  0.58286758  0.49947629
   0.49986606  0.49983751  0.38717134
   0.58278230  0.58280914  0.50058422
   0.58285126  0.41727155  0.49949797
Direct configuration=    14
   0.72597633  0.57250929  0.49995818
   0.57252441  0.72595556  0.49994698
   0.27475412  0.57445403  0.49943592
   0.42482937  0.72539937  0.49954341
   0.27496688  0.42641838  0.49957920
   0.42640811  0.27496892  0.49955166
   0.72540735  0.42483228  0.49956521
   0.57447395  0.27475777  0.49941243
   0.69509790  0.49929385  0.64006443
   0.30460922  0.49997026  0.63945092
   0.49925926  0.69505996  0.64010205
   0.49992935  0.30464335  0.63942431
   0.65792037  0.65793286  0.61953056
   0.34484750  0.65473729  0.62413787
   0.34118740  0.34122102  0.62136761
   0.65473852  0.34486343  0.62410803
   0.69523198  0.50026451  0.35948161
   0.30454642  0.49985583  0.35952447
   0.50026373  0.69527499  0.35941686
   0.49985464  0.30452863  0.35950713
   0.65536031  0.65537292  0.37975515
   0.34302759  0.65706212  0.37752600
   0.34437784  0.34435734  0.37742696
   0.65708351  0.34296252  0.37755743
   0.58688954  0.58686931  0.71991941
   0.42585279  0.57365409  0.71338136
   0.41269493  0.41271441  0.72051737
   0.57369542  0.42585532  0.71331084
   0.57779054  0.57780816  0.28438708
   0.41806143  0.58219857  0.28102006
   0.42293853  0.42296013  0.28409887
   0.58220538  0.41805746  0.28106902
   0.49985628  0.49985075  0.61163619
   0.41809337  0.41810333  0.50040103
   0.41823503  0.58213913  0.49889629
   0.49987013  0.49986319  0.38828401
   0.58231880  0.58232134  0.50079824
   0.58215224  0.41823878  0.49891036
Direct configuration=    15
   0.72262549  0.57396563  0.49996416
   0.57399479  0.72264047  0.49991940
   0.27653850  0.57691720  0.49924582
   0.42174415  0.72374450  0.49927728
   0.27746575  0.42446801  0.49961803
   0.42446489  0.27747685  0.49962425
   0.72367139  0.42175617  0.49931275
   0.57694793  0.27657311  0.49924385
   0.69298515  0.49877936  0.64090225
   0.30684777  0.50026638  0.63993566
   0.49871164  0.69295859  0.64096984
   0.50020077  0.30675852  0.63996459
   0.66079871  0.66079764  0.62186876
   0.34437446  0.65517255  0.62862421
   0.33844129  0.33848520  0.62414229
   0.65526492  0.34432114  0.62853612
   0.69402760  0.50039667  0.35924407
   0.30575172  0.49949429  0.35969716
   0.50039781  0.69411163  0.35914111
   0.49950271  0.30569955  0.35968161
   0.65684975  0.65688202  0.37614528
   0.34101184  0.65906945  0.37380971
   0.34306403  0.34310080  0.37303163
   0.65914367  0.34092514  0.37387939
   0.59011812  0.59008998  0.72225233
   0.43041429  0.56906866  0.71236380
   0.40945736  0.40947384  0.72323813
   0.56909786  0.43044084  0.71238851
   0.57521678  0.57527467  0.28535650
   0.41686758  0.58339540  0.27936166
   0.42568566  0.42577921  0.28509289
   0.58342586  0.41686884  0.27936298
   0.49995518  0.50002483  0.60849083
   0.42010548  0.42010383  0.50106339
   0.42047897  0.58046610  0.49756420
   0.49987947  0.49992218  0.39083945
   0.58125431  0.58120100  0.50128979
   0.58054683  0.42046019  0.49756081
Direct configuration=    16
   0.72228025  0.57410970  0.49995472
   0.57413387  0.72228998  0.49989350
   0.27695159  0.57726893  0.49924155
   0.42119055  0.72345552  0.49926093
   0.27782068  0.42420060  0.49959563
   0.42420735  0.27783140  0.49961620
   0.72339311  0.42120043  0.49929948
   0.57729617  0.27698051  0.49924028
   0.69217243  0.49858698  0.64091571
   0.30766648  0.50040607  0.63985514
   0.49850522  0.69215063  0.64097574
   0.50033082  0.30756157  0.63989500
   0.66144572  0.66143755  0.62244759
   0.34456428  0.65497599  0.62981189
   0.33787361  0.33791184  0.62472555
   0.65506795  0.34450984  0.62972113
   0.69352865  0.50043884  0.35940900
   0.30623274  0.49938999  0.36000721
   0.50044446  0.69362464  0.35931145
   0.49940653  0.30618487  0.35999126
   0.65702419  0.65706783  0.37514805
   0.34059674  0.65947863  0.37289985
   0.34298679  0.34303536  0.37195408
   0.65954901  0.34050924  0.37296700
   0.59111268  0.59106808  0.72269955
   0.43122179  0.56825389  0.71246032
   0.40851221  0.40851278  0.72374371
   0.56827363  0.43125872  0.71249180
   0.57460419  0.57466542  0.28565927
   0.41620435  0.58404936  0.27873617
   0.42636093  0.42645567  0.28541510
   0.58408675  0.41619834  0.27874007
   0.49998596  0.50004332  0.60755633
   0.41996786  0.41996433  0.50121242
   0.42021314  0.58081778  0.49725084
   0.49992878  0.49997427  0.39125495
   0.58131308  0.58127077  0.50140255
   0.58087594  0.42019078  0.49724349
Direct configuration=    17
   0.72124453  0.57454192  0.49992639
   0.57455110  0.72123852  0.49981579
   0.27819084  0.57832413  0.49922873
   0.41952975  0.72258860  0.49921191
   0.27888545  0.42339836  0.49952843
   0.42343474  0.27889502  0.49959205
   0.72255829  0.41953321  0.49925967
   0.57834089  0.27820269  0.49922958
   0.68973427  0.49800985  0.64095607
   0.31012260  0.50082516  0.63961356
   0.49788595  0.68972675  0.64099346
   0.50072096  0.30997071  0.63968623
   0.66338677  0.66335729  0.62418408
   0.34513375  0.65438631  0.63337495
   0.33617056  0.33619178  0.62647531
   0.65447704  0.34507593  0.63327616
   0.69203178  0.50056535  0.35990376
   0.30767579  0.49907710  0.36093737
   0.50058439  0.69216364  0.35982246
   0.49911798  0.30764086  0.36092019
   0.65754752  0.65762524  0.37215637
   0.33935146  0.66070618  0.37017028
   0.34275509  0.34283904  0.36872143
   0.66076505  0.33926157  0.37022982
   0.59409636  0.59400238  0.72404118
   0.43364430  0.56580958  0.71274987
   0.40567676  0.40562962  0.72526045
   0.56580092  0.43371233  0.71280169
   0.57276642  0.57283764  0.28656756
   0.41421466  0.58601125  0.27685972
   0.42838674  0.42848506  0.28638173
   0.58606944  0.41418683  0.27687134
   0.50007832  0.50009877  0.60475283
   0.41955501  0.41954584  0.50165950
   0.41941564  0.58187280  0.49631075
   0.50007672  0.50013052  0.39250146
   0.58148936  0.58148009  0.50174082
   0.58186326  0.41938256  0.49629154
Direct configuration=    18
   0.71917309  0.57540636  0.49986973
   0.57538556  0.71913560  0.49966039
   0.28066933  0.58043451  0.49920308
   0.41620817  0.72085475  0.49911385
   0.28101501  0.42179387  0.49939403
   0.42188953  0.28102228  0.49954376
   0.72088866  0.41619877  0.49918006
   0.58043033  0.28064705  0.49920817
   0.68485795  0.49685558  0.64103680
   0.31503485  0.50166334  0.63913040
   0.49664741  0.68487900  0.64102888
   0.50150125  0.31478900  0.63926870
   0.66726887  0.66719675  0.62765705
   0.34627268  0.65320696  0.64050106
   0.33276446  0.33275165  0.62997484
   0.65329522  0.34620812  0.64038621
   0.68903805  0.50081836  0.36089329
   0.31056189  0.49845130  0.36279769
   0.50086424  0.68924166  0.36084449
   0.49854089  0.31055282  0.36277807
   0.65859417  0.65874007  0.36617301
   0.33686091  0.66316127  0.36471115
   0.34229169  0.34244640  0.36225611
   0.66319712  0.33676622  0.36475546
   0.60006372  0.59987098  0.72672445
   0.43848933  0.56092095  0.71332898
   0.40000586  0.39986328  0.72829394
   0.56085550  0.43861956  0.71342146
   0.56909089  0.56918208  0.28838415
   0.41023528  0.58993501  0.27310682
   0.43243836  0.43254383  0.28831500
   0.59003481  0.41016381  0.27313389
   0.50026303  0.50020966  0.59914584
   0.41872931  0.41870886  0.50255367
   0.41782064  0.58398285  0.49443057
   0.50037260  0.50044304  0.39499447
   0.58184192  0.58189874  0.50241736
   0.58383791  0.41776612  0.49438765
Direct configuration=    19
   0.72090050  0.57468549  0.49991698
   0.57468969  0.72088926  0.49978998
   0.27860247  0.57867462  0.49922447
   0.41897810  0.72230064  0.49919562
   0.27923914  0.42313188  0.49950611
   0.42317811  0.27924832  0.49958403
   0.72228100  0.41897942  0.49924645
   0.57868791  0.27860865  0.49922602
   0.68892440  0.49781814  0.64096948
   0.31093844  0.50096437  0.63953331
   0.49768025  0.68892163  0.64099934
   0.50085055  0.31077094  0.63961689
   0.66403152  0.66399495  0.62476088
   0.34532290  0.65419044  0.63455847
   0.33560487  0.33562043  0.62705652
   0.65428076  0.34526397  0.63445701
   0.69153458  0.50060737  0.36006810
   0.30815512  0.49897316  0.36124633
   0.50063087  0.69167835  0.35999221
   0.49902214  0.30812448  0.36122875
   0.65772135  0.65781039  0.37116264
   0.33893783  0.66111393  0.36926362
   0.34267813  0.34277383  0.36764765
   0.66116897  0.33884714  0.36932062
   0.59508743  0.59497705  0.72448683
   0.43444898  0.56499766  0.71284605
   0.40473492  0.40467193  0.72576426
   0.56497957  0.43452733  0.71290462
   0.57215598  0.57223051  0.28686926
   0.41355375  0.58666291  0.27623643
   0.42905965  0.42915914  0.28670281
   0.58672801  0.41351868  0.27625062
   0.50010899  0.50011718  0.60382161
   0.41941788  0.41940683  0.50180801
   0.41915074  0.58222324  0.49599848
   0.50012586  0.50018243  0.39291550
   0.58154791  0.58154962  0.50185318
   0.58219122  0.41911410  0.49597534
Direct configuration=    20
   0.72212760  0.57446495  0.49981695
   0.57446175  0.72211681  0.49968951
   0.27791695  0.57853819  0.49938062
   0.41889286  0.72318005  0.49936943
   0.27824234  0.42325383  0.49939430
   0.42330685  0.27824894  0.49947083
   0.72316701  0.41889414  0.49942086
   0.57854449  0.27790055  0.49938428
   0.68824205  0.49764998  0.64078423
   0.31157931  0.50109079  0.63935084
   0.49752033  0.68824313  0.64080997
   0.50099067  0.31143279  0.63942972
   0.66416807  0.66413427  0.62468517
   0.34606014  0.65350588  0.63518527
   0.33545421  0.33545852  0.62690209
   0.65355904  0.34601368  0.63509731
   0.69099840  0.50067723  0.36048480
   0.30863268  0.49891882  0.36175050
   0.50069796  0.69114013  0.36041576
   0.49895952  0.30861837  0.36173307
   0.65724548  0.65734162  0.37058996
   0.33882747  0.66122045  0.36887514
   0.34328022  0.34336255  0.36711765
   0.66125611  0.33874678  0.36892664
   0.59554716  0.59544466  0.72429194
   0.43446141  0.56499408  0.71330528
   0.40437705  0.40429948  0.72557420
   0.56497710  0.43450889  0.71334969
   0.57192391  0.57199563  0.28711825
   0.41262660  0.58751512  0.27559462
   0.42937284  0.42944299  0.28691551
   0.58757318  0.41258013  0.27563851
   0.50011954  0.50011132  0.60331721
   0.41880732  0.41880730  0.50176551
   0.41838471  0.58294802  0.49593599
   0.50023250  0.50028117  0.39333849
   0.58188608  0.58188690  0.50187382
   0.58290955  0.41836230  0.49592059
Direct configuration=    21
   0.72580889  0.57380332  0.49951688
   0.57377793  0.72579945  0.49938809
   0.27586040  0.57812890  0.49984907
   0.41863713  0.72581829  0.49989084
   0.27525194  0.42361967  0.49905888
   0.42369308  0.27525080  0.49913123
   0.72582506  0.41863828  0.49994411
   0.57811425  0.27577623  0.49985905
   0.68619500  0.49714547  0.64022850