 running on   24 total cores
 distrk:  each k-point on   24 cores,    1 groups
 distr:  one band on    4 cores,    6 groups
 vasp.6.3.0 20Jan22 (build Sep 10 2022 15:35:45) gamma-only                     
  
 POSCAR found :  1 types and      38 ions
 scaLAPACK will be used
 LDA part: xc-table for Pade appr. of Perdew
 POSCAR found :  1 types and      38 ions
 POSCAR, INCAR and KPOINTS ok, starting setup
 FFT: planning ... GRIDC
 FFT: planning ... GRID_SOFT
 FFT: planning ... GRID
 WAVECAR not read
 entering main loop
       N       E                     dE             d eps       ncg     rms          rms(c)
DAV:   1     0.841455864540E+04    0.84146E+04   -0.17917E+05   756   0.100E+03
DAV:   2     0.256314560164E+04   -0.58514E+04   -0.56806E+04  1008   0.322E+02
DAV:   3    -0.194397914496E+03   -0.27575E+04   -0.27125E+04  1068   0.295E+02
DAV:   4    -0.569496486580E+03   -0.37510E+03   -0.36334E+03  1128   0.140E+02
DAV:   5    -0.622839362832E+03   -0.53343E+02   -0.51142E+02  1200   0.512E+01    0.160E+02
DAV:   6    -0.949544144475E+03   -0.32670E+03   -0.13399E+04  1044   0.422E+02    0.184E+02
DAV:   7    -0.448195331829E+03    0.50135E+03   -0.63739E+03   888   0.270E+02    0.184E+02
DAV:   8    -0.396357194162E+03    0.51838E+02   -0.35806E+03  1128   0.161E+02    0.134E+02
DAV:   9    -0.415755467424E+03   -0.19398E+02   -0.82616E+02  1236   0.584E+01    0.104E+02
DAV:  10    -0.432111172914E+03   -0.16356E+02   -0.61220E+02  1152   0.585E+01    0.108E+02
DAV:  11    -0.408816099680E+03    0.23295E+02   -0.13595E+03  1296   0.103E+02    0.949E+01
DAV:  12    -0.445578531751E+03   -0.36762E+02   -0.13379E+03  1284   0.967E+01    0.119E+02
DAV:  13    -0.381395852622E+03    0.64183E+02   -0.72110E+02  1284   0.726E+01    0.846E+01
DAV:  14    -0.358338330693E+03    0.23058E+02   -0.36701E+02  1188   0.490E+01    0.546E+01
DAV:  15    -0.351615690354E+03    0.67226E+01   -0.15003E+02  1164   0.302E+01    0.406E+01
DAV:  16    -0.354550610769E+03   -0.29349E+01   -0.76428E+01  1140   0.228E+01    0.418E+01
DAV:  17    -0.352801245672E+03    0.17494E+01   -0.38499E+01  1164   0.173E+01    0.355E+01
DAV:  18    -0.350465865306E+03    0.23354E+01   -0.22838E+01  1140   0.131E+01    0.284E+01
DAV:  19    -0.348428939287E+03    0.20369E+01   -0.12531E+01  1152   0.950E+00    0.248E+01
DAV:  20    -0.347721058546E+03    0.70788E+00   -0.11082E+01  1104   0.818E+00    0.223E+01
DAV:  21    -0.348242831779E+03   -0.52177E+00   -0.81424E+00  1164   0.780E+00    0.241E+01
DAV:  22    -0.347511265645E+03    0.73157E+00   -0.80908E+00  1128   0.827E+00    0.208E+01
DAV:  23    -0.346901814313E+03    0.60945E+00   -0.69299E+00  1104   0.733E+00    0.175E+01
DAV:  24    -0.347492636953E+03   -0.59082E+00   -0.90209E+00  1104   0.740E+00    0.194E+01
DAV:  25    -0.346498036712E+03    0.99460E+00   -0.90868E+00  1116   0.771E+00    0.159E+01
DAV:  26    -0.346175229397E+03    0.32281E+00   -0.83516E+00  1116   0.703E+00    0.143E+01
DAV:  27    -0.346154318794E+03    0.20911E-01   -0.95714E+00  1128   0.776E+00    0.144E+01
DAV:  28    -0.345107981996E+03    0.10463E+01   -0.57427E+00  1116   0.633E+00    0.719E+00
DAV:  29    -0.345060519400E+03    0.47463E-01   -0.17580E+00  1140   0.327E+00    0.569E+00
DAV:  30    -0.345048354018E+03    0.12165E-01   -0.83473E-01  1212   0.234E+00    0.523E+00
DAV:  31    -0.344995138742E+03    0.53215E-01   -0.31441E-01  1152   0.151E+00    0.408E+00
DAV:  32    -0.345011229306E+03   -0.16091E-01   -0.30072E-01  1128   0.141E+00    0.399E+00
DAV:  33    -0.345058754246E+03   -0.47525E-01   -0.55173E-01  1140   0.182E+00    0.400E+00
DAV:  34    -0.345001244403E+03    0.57510E-01   -0.55711E-01  1128   0.198E+00    0.242E+00
DAV:  35    -0.345054737564E+03   -0.53493E-01   -0.44970E-01  1116   0.173E+00    0.308E+00
DAV:  36    -0.345009972438E+03    0.44765E-01   -0.29073E-01  1116   0.147E+00    0.145E+00
DAV:  37    -0.345019112291E+03   -0.91399E-02   -0.10635E-01  1128   0.833E-01    0.118E+00
DAV:  38    -0.345034821948E+03   -0.15710E-01   -0.80311E-02  1116   0.702E-01    0.144E+00
DAV:  39    -0.345030611836E+03    0.42101E-02   -0.63567E-02  1068   0.635E-01    0.865E-01
DAV:  40    -0.345042204765E+03   -0.11593E-01   -0.44841E-02  1080   0.520E-01    0.928E-01
DAV:  41    -0.345051249642E+03   -0.90449E-02   -0.36302E-02  1092   0.474E-01    0.826E-01
DAV:  42    -0.345052207099E+03   -0.95746E-03   -0.21985E-02  1056   0.379E-01    0.508E-01
DAV:  43    -0.345061466886E+03   -0.92598E-02   -0.19403E-02   996   0.333E-01    0.645E-01
DAV:  44    -0.345062697157E+03   -0.12303E-02   -0.14607E-02   828   0.297E-01    0.252E-01
DAV:  45    -0.345070274396E+03   -0.75772E-02   -0.10199E-02   876   0.234E-01    0.438E-01
DAV:  46    -0.345072357373E+03   -0.20830E-02   -0.80352E-03   708   0.222E-01    0.239E-01
DAV:  47    -0.345074144926E+03   -0.17876E-02   -0.33313E-03   768   0.153E-01    0.249E-01
DAV:  48    -0.345075970564E+03   -0.18256E-02   -0.28369E-03   732   0.137E-01    0.238E-01
DAV:  49    -0.345076776546E+03   -0.80598E-03   -0.15519E-03   708   0.111E-01    0.152E-01
DAV:  50    -0.345078134849E+03   -0.13583E-02   -0.10089E-03   708   0.792E-02    0.162E-01
DAV:  51    -0.345079250001E+03   -0.11152E-02   -0.10308E-03   684   0.821E-02    0.830E-02
DAV:  52    -0.345079997800E+03   -0.74780E-03   -0.67595E-04   660   0.669E-02    0.110E-01
DAV:  53    -0.345080385341E+03   -0.38754E-03   -0.42059E-04   624   0.572E-02    0.548E-02
DAV:  54    -0.345080748522E+03   -0.36318E-03   -0.19888E-04   540   0.433E-02    0.571E-02
DAV:  55    -0.345081177056E+03   -0.42853E-03   -0.12491E-04   444   0.405E-02    0.368E-02
DAV:  56    -0.345081336574E+03   -0.15952E-03   -0.83002E-05   396   0.335E-02    0.311E-02
DAV:  57    -0.345081513832E+03   -0.17726E-03   -0.67177E-05   384   0.278E-02    0.280E-02
DAV:  58    -0.345081664459E+03   -0.15063E-03   -0.54333E-05   384   0.252E-02    0.171E-02
DAV:  59    -0.345081875859E+03   -0.21140E-03   -0.51325E-05   372   0.200E-02    0.214E-02
DAV:  60    -0.345082021021E+03   -0.14516E-03   -0.39341E-05   360   0.200E-02
 -----------------------------------------------------------------------------
|                                                                             |
|           W    W    AA    RRRRR   N    N  II  N    N   GGGG   !!!           |
|           W    W   A  A   R    R  NN   N  II  NN   N  G    G  !!!           |
|           W    W  A    A  R    R  N N  N  II  N N  N  G       !!!           |
|           W WW W  AAAAAA  RRRRR   N  N N  II  N  N N  G  GGG   !            |
|           WW  WW  A    A  R   R   N   NN  II  N   NN  G    G                |
|           W    W  A    A  R    R  N    N  II  N    N   GGGG   !!!           |
|                                                                             |
|     The electronic self-consistency was not achieved in the given           |
|     number of steps (NELM). The forces and other quantities evaluated       |
|     might not be reliable so examine the results carefully. If you find     |
|     spurious results, we suggest increasing NELM, if you were close to      |
|     convergence or switching to a different ALGO or adjusting the           |
|     density mixing parameters otherwise.                                    |
|                                                                             |
 -----------------------------------------------------------------------------

   1 F= -.34508202E+03 E0= -.34500367E+03  d E =-.345082E+03
 curvature:   0.00 expect dE= 0.000E+00 dE for cont linesearch  0.000E+00
 trial: gam= 0.00000 g(F)=  0.454E+01 g(S)=  0.000E+00 ort = 0.000E+00 (trialstep = 0.100E+01)
 search vector abs. value=  0.454E+01
 bond charge predicted
       N       E                     dE             d eps       ncg     rms          rms(c)
DAV:   1    -0.347974083739E+03   -0.28922E+01   -0.14294E+02   804   0.242E+01    0.903E+00
DAV:   2    -0.356074707554E+03   -0.81006E+01   -0.60635E+01  1020   0.242E+01    0.292E+01
DAV:   3    -0.348833985043E+03    0.72407E+01   -0.49440E+01  1092   0.181E+01    0.918E+00
DAV:   4    -0.350593311159E+03   -0.17593E+01   -0.10995E+01  1104   0.895E+00    0.175E+01
DAV:   5    -0.349735969443E+03    0.85734E+00   -0.83294E+00  1116   0.769E+00    0.986E+00
DAV:   6    -0.349812501740E+03   -0.76532E-01   -0.79985E+00  1152   0.671E+00    0.113E+01
DAV:   7    -0.350326758800E+03   -0.51426E+00   -0.11364E+01  1116   0.789E+00    0.127E+01
DAV:   8    -0.349467686607E+03    0.85907E+00   -0.66234E+00  1092   0.634E+00    0.660E+00
DAV:   9    -0.349321111756E+03    0.14657E+00   -0.23502E+00  1104   0.430E+00    0.501E+00
DAV:  10    -0.349308037880E+03    0.13074E-01   -0.11484E+00  1080   0.302E+00    0.434E+00
DAV:  11    -0.349346874903E+03   -0.38837E-01   -0.88727E-01  1116   0.252E+00    0.486E+00
DAV:  12    -0.349209007126E+03    0.13787E+00   -0.56375E-01  1092   0.202E+00    0.166E+00
DAV:  13    -0.349229716307E+03   -0.20709E-01   -0.23856E-01  1092   0.121E+00    0.177E+00
DAV:  14    -0.349250583448E+03   -0.20867E-01   -0.17114E-01  1176   0.117E+00    0.255E+00
DAV:  15    -0.349216249279E+03    0.34334E-01   -0.99534E-02  1128   0.995E-01    0.946E-01
DAV:  16    -0.349218132572E+03   -0.18833E-02   -0.45531E-02  1128   0.520E-01    0.517E-01
DAV:  17    -0.349223953837E+03   -0.58213E-02   -0.37487E-02  1116   0.469E-01    0.103E+00
DAV:  18    -0.349217647947E+03    0.63059E-02   -0.25964E-02   876   0.404E-01    0.297E-01
DAV:  19    -0.349219749620E+03   -0.21017E-02   -0.12465E-02   912   0.270E-01    0.437E-01
DAV:  20    -0.349219914651E+03   -0.16503E-03   -0.10655E-02   816   0.260E-01    0.368E-01
DAV:  21    -0.349219353795E+03    0.56086E-03   -0.61492E-03   744   0.210E-01    0.181E-01
DAV:  22    -0.349219460600E+03   -0.10681E-03   -0.23401E-03   756   0.133E-01    0.163E-01
DAV:  23    -0.349219576145E+03   -0.11554E-03   -0.15194E-03   684   0.112E-01    0.171E-01
DAV:  24    -0.349219434171E+03    0.14197E-03   -0.85001E-04   684   0.889E-02    0.597E-02
DAV:  25    -0.349219488550E+03   -0.54379E-04   -0.40596E-04   624   0.573E-02
   2 F= -.34921949E+03 E0= -.34916166E+03  d E =-.413747E+01
 ZBRENT: can't locate minimum, use default step
 trial-energy change:   -4.137468  1 .order   -4.141981   -4.537993   -3.745970
 step:   4.0000(harm=  5.7296)  dis= 0.17017  next Energy=  -358.082518 (dE=-0.130E+02)
 bond charge predicted
       N       E                     dE             d eps       ncg     rms          rms(c)
DAV:   1    -0.344998204406E+03    0.42212E+01   -0.13112E+03   912   0.803E+01    0.231E+01
DAV:   2    -0.424637576229E+03   -0.79639E+02   -0.56634E+02  1104   0.688E+01    0.108E+02
DAV:   3    -0.350671837922E+03    0.73966E+02   -0.61701E+02  1164   0.583E+01    0.272E+01
DAV:   4    -0.359836063039E+03   -0.91642E+01   -0.12130E+02  1152   0.232E+01    0.300E+01
DAV:   5    -0.361318315651E+03   -0.14823E+01   -0.56346E+01  1116   0.187E+01    0.285E+01
DAV:   6    -0.362357486951E+03   -0.10392E+01   -0.52763E+01  1140   0.194E+01    0.288E+01
DAV:   7    -0.369598924717E+03   -0.72414E+01   -0.56892E+01  1212   0.213E+01    0.511E+01
DAV:   8    -0.361591786628E+03    0.80071E+01   -0.79909E+01  1140   0.221E+01    0.283E+01
DAV:   9    -0.358280524097E+03    0.33113E+01   -0.35936E+01  1104   0.147E+01    0.154E+01
DAV:  10    -0.359021079920E+03   -0.74056E+00   -0.16738E+01  1152   0.106E+01    0.192E+01
DAV:  11    -0.358452966217E+03    0.56811E+00   -0.14532E+01  1176   0.979E+00    0.138E+01
DAV:  12    -0.357803091252E+03    0.64987E+00   -0.74957E+00  1164   0.672E+00    0.968E+00
DAV:  13    -0.357365426295E+03    0.43766E+00   -0.39951E+00  1080   0.486E+00    0.537E+00
DAV:  14    -0.357441720541E+03   -0.76294E-01   -0.17324E+00  1128   0.320E+00    0.634E+00
DAV:  15    -0.357519823674E+03   -0.78103E-01   -0.15481E+00  1140   0.336E+00    0.736E+00
DAV:  16    -0.357270811386E+03    0.24901E+00   -0.13083E+00  1092   0.287E+00    0.320E+00
DAV:  17    -0.357317074789E+03   -0.46263E-01   -0.66946E-01  1092   0.193E+00    0.362E+00
DAV:  18    -0.357287698249E+03    0.29377E-01   -0.43146E-01  1104   0.166E+00    0.264E+00
DAV:  19    -0.357265996062E+03    0.21702E-01   -0.27307E-01  1116   0.122E+00    0.143E+00
DAV:  20    -0.357313141244E+03   -0.47145E-01   -0.34901E-01  1068   0.131E+00    0.275E+00
DAV:  21    -0.357284476619E+03    0.28665E-01   -0.27793E-01  1128   0.122E+00    0.159E+00
DAV:  22    -0.357281297489E+03    0.31791E-02   -0.13799E-01  1128   0.925E-01    0.113E+00
DAV:  23    -0.357284410861E+03   -0.31134E-02   -0.79546E-02  1128   0.710E-01    0.121E+00
DAV:  24    -0.357283253005E+03    0.11579E-02   -0.58567E-02  1104   0.586E-01    0.980E-01
DAV:  25    -0.357278501727E+03    0.47513E-02   -0.35091E-02  1020   0.444E-01    0.383E-01
DAV:  26    -0.357281706232E+03   -0.32045E-02   -0.21204E-02  1044   0.318E-01    0.695E-01
DAV:  27    -0.357279147256E+03    0.25590E-02   -0.13224E-02   804   0.270E-01    0.257E-01
DAV:  28    -0.357279487707E+03   -0.34045E-03   -0.44683E-03   756   0.160E-01    0.182E-01
DAV:  29    -0.357279815443E+03   -0.32774E-03   -0.23583E-03   768   0.123E-01    0.260E-01
DAV:  30    -0.357279500222E+03    0.31522E-03   -0.15274E-03   696   0.104E-01    0.102E-01
DAV:  31    -0.357279587053E+03   -0.86830E-04   -0.68175E-04   720   0.678E-02
   3 F= -.35727959E+03 E0= -.35723795E+03  d E =-.121976E+02
 curvature:  -2.48 expect dE=-0.259E+01 dE for cont linesearch -0.164E+01
 ZBRENT: increasing intervall
 opt :  10.0000  next Energy=  -355.559573 (dE=-0.105E+02)
 bond charge predicted
       N       E                     dE             d eps       ncg     rms          rms(c)
DAV:   1    -0.299024272000E+03    0.58255E+02   -0.54524E+03   948   0.182E+02    0.361E+01
DAV:   2    -0.577958824847E+03   -0.27893E+03   -0.22552E+03  1128   0.124E+02    0.193E+02
DAV:   3    -0.347875315737E+03    0.23008E+03   -0.16495E+03  1236   0.726E+01    0.557E+01
DAV:   4    -0.361993612762E+03   -0.14118E+02   -0.41403E+02  1200   0.413E+01    0.441E+01
DAV:   5    -0.380726073243E+03   -0.18732E+02   -0.27087E+02  1176   0.333E+01    0.655E+01
DAV:   6    -0.376268385155E+03    0.44577E+01   -0.19238E+02  1212   0.336E+01    0.629E+01
DAV:   7    -0.362320303056E+03    0.13948E+02   -0.15089E+02  1188   0.283E+01    0.292E+01
DAV:   8    -0.379057252004E+03   -0.16737E+02   -0.15496E+02  1188   0.269E+01    0.589E+01
DAV:   9    -0.378691636248E+03    0.36562E+00   -0.15324E+02  1248   0.291E+01    0.681E+01
DAV:  10    -0.364851832203E+03    0.13840E+02   -0.12378E+02  1176   0.249E+01    0.348E+01
DAV:  11    -0.360374747465E+03    0.44771E+01   -0.49469E+01  1164   0.141E+01    0.157E+01
DAV:  12    -0.360791317740E+03   -0.41657E+00   -0.19176E+01  1092   0.847E+00    0.167E+01
DAV:  13    -0.360827715737E+03   -0.36398E-01   -0.12257E+01  1200   0.795E+00    0.206E+01
DAV:  14    -0.359877502995E+03    0.95021E+00   -0.10825E+01  1116   0.704E+00    0.140E+01
DAV:  15    -0.360279981986E+03   -0.40248E+00   -0.69205E+00  1188   0.593E+00    0.164E+01
DAV:  16    -0.359739886757E+03    0.54010E+00   -0.62749E+00  1140   0.559E+00    0.109E+01
DAV:  17    -0.359535658272E+03    0.20423E+00   -0.52158E+00  1128   0.498E+00    0.889E+00
DAV:  18    -0.359773744667E+03   -0.23809E+00   -0.53209E+00  1140   0.490E+00    0.114E+01
DAV:  19    -0.359711295356E+03    0.62449E-01   -0.50480E+00  1140   0.453E+00    0.108E+01
DAV:  20    -0.359522098300E+03    0.18920E+00   -0.40584E+00  1176   0.440E+00    0.875E+00
DAV:  21    -0.359434428319E+03    0.87670E-01   -0.22912E+00  1140   0.308E+00    0.679E+00
DAV:  22    -0.359358790895E+03    0.75637E-01   -0.12045E+00  1140   0.238E+00    0.550E+00
DAV:  23    -0.359278494309E+03    0.80297E-01   -0.81743E-01  1128   0.186E+00    0.336E+00
DAV:  24    -0.359380363776E+03   -0.10187E+00   -0.92528E-01  1128   0.186E+00    0.535E+00
DAV:  25    -0.359285753544E+03    0.94610E-01   -0.68603E-01  1128   0.166E+00    0.272E+00
DAV:  26    -0.359273575381E+03    0.12178E-01   -0.30144E-01  1128   0.113E+00    0.166E+00
DAV:  27    -0.359281139270E+03   -0.75639E-02   -0.17204E-01  1104   0.860E-01    0.146E+00
DAV:  28    -0.359282649275E+03   -0.15100E-02   -0.12989E-01  1152   0.714E-01    0.144E+00
DAV:  29    -0.359274632177E+03    0.80171E-02   -0.63196E-02  1104   0.544E-01    0.801E-01
DAV:  30    -0.359275324728E+03   -0.69255E-03   -0.26132E-02  1092   0.345E-01    0.683E-01
DAV:  31    -0.359277479802E+03   -0.21551E-02   -0.19594E-02   912   0.289E-01    0.680E-01
DAV:  32    -0.359276142698E+03    0.13371E-02   -0.15797E-02   804   0.256E-01    0.372E-01
DAV:  33    -0.359278435299E+03   -0.22926E-02   -0.16647E-02   792   0.274E-01    0.628E-01
DAV:  34    -0.359278100749E+03    0.33455E-03   -0.18220E-02   804   0.273E-01    0.488E-01
DAV:  35    -0.359277222957E+03    0.87779E-03   -0.96118E-03   756   0.221E-01    0.219E-01
DAV:  36    -0.359277540279E+03   -0.31732E-03   -0.40903E-03   804   0.137E-01    0.276E-01
DAV:  37    -0.359277354973E+03    0.18531E-03   -0.21802E-03   732   0.111E-01    0.142E-01
DAV:  38    -0.359277365935E+03   -0.10962E-04   -0.76065E-04   732   0.691E-02
   4 F= -.35927737E+03 E0= -.35921402E+03  d E =-.141953E+02
 curvature:   2.61 expect dE= 0.386E+01 dE for cont linesearch  0.341E+00
 ZBRENT: bracketing found
 ZBRENT: interpolating
 opt :   8.1521  next Energy=  -359.988631 (dE=-0.149E+02)
 bond charge predicted
       N       E                     dE             d eps       ncg     rms          rms(c)
DAV:   1    -0.356089567080E+03    0.31878E+01   -0.49517E+02   804   0.416E+01    0.112E+01
DAV:   2    -0.371610298015E+03   -0.15521E+02   -0.12020E+02  1056   0.350E+01    0.314E+01
DAV:   3    -0.361751737398E+03    0.98586E+01   -0.53804E+01  1140   0.194E+01    0.206E+01
DAV:   4    -0.361054669561E+03    0.69707E+00   -0.26865E+01  1128   0.110E+01    0.140E+01
DAV:   5    -0.363932818569E+03   -0.28781E+01   -0.20141E+01  1140   0.104E+01    0.264E+01
DAV:   6    -0.361981602604E+03    0.19512E+01   -0.15577E+01  1200   0.102E+01    0.210E+01
DAV:   7    -0.360358086454E+03    0.16235E+01   -0.13009E+01  1152   0.750E+00    0.784E+00
DAV:   8    -0.361185932048E+03   -0.82785E+00   -0.78673E+00  1164   0.590E+00    0.141E+01
DAV:   9    -0.360504443217E+03    0.68149E+00   -0.51411E+00  1140   0.554E+00    0.104E+01
DAV:  10    -0.360353549231E+03    0.15089E+00   -0.43166E+00  1104   0.454E+00    0.731E+00
DAV:  11    -0.361002023483E+03   -0.64847E+00   -0.44750E+00  1176   0.478E+00    0.137E+01
DAV:  12    -0.360220518703E+03    0.78150E+00   -0.34528E+00  1116   0.428E+00    0.538E+00
DAV:  13    -0.360184919061E+03    0.35600E-01   -0.10783E+00  1188   0.232E+00    0.320E+00
DAV:  14    -0.360175591135E+03    0.93279E-02   -0.37482E-01  1104   0.146E+00    0.251E+00
DAV:  15    -0.360172049132E+03    0.35420E-02   -0.22546E-01  1140   0.109E+00    0.196E+00
DAV:  16    -0.360178362725E+03   -0.63136E-02   -0.17608E-01  1188   0.861E-01    0.190E+00
DAV:  17    -0.360168098980E+03    0.10264E-01   -0.11715E-01  1104   0.747E-01    0.113E+00
DAV:  18    -0.360172554393E+03   -0.44554E-02   -0.74169E-02  1140   0.586E-01    0.116E+00
DAV:  19    -0.360185255503E+03   -0.12701E-01   -0.86258E-02  1140   0.626E-01    0.162E+00
DAV:  20    -0.360173239879E+03    0.12016E-01   -0.72335E-02  1068   0.596E-01    0.722E-01
DAV:  21    -0.360178682151E+03   -0.54423E-02   -0.54462E-02  1068   0.484E-01    0.103E+00
DAV:  22    -0.360176496216E+03    0.21859E-02   -0.40043E-02  1044   0.433E-01    0.647E-01
DAV:  23    -0.360174845770E+03    0.16504E-02   -0.18540E-02   888   0.326E-01    0.367E-01
DAV:  24    -0.360174455644E+03    0.39013E-03   -0.61456E-03   900   0.183E-01    0.188E-01
DAV:  25    -0.360174902937E+03   -0.44729E-03   -0.38653E-03   780   0.134E-01    0.317E-01
DAV:  26    -0.360174454770E+03    0.44817E-03   -0.24129E-03   756   0.116E-01    0.159E-01
DAV:  27    -0.360174431990E+03    0.22780E-04   -0.77835E-04   660   0.705E-02
   5 F= -.36017443E+03 E0= -.36012878E+03  d E =-.150924E+02
 curvature:  -5.45 expect dE=-0.593E+01 dE for cont linesearch -0.366E-01
 trial: gam= 0.27853 g(F)=  0.109E+01 g(S)=  0.000E+00 ort =-0.175E+00 (trialstep = 0.243E+01)
 search vector abs. value=  0.134E+01
 bond charge predicted
       N       E                     dE             d eps       ncg     rms          rms(c)
DAV:   1    -0.361488304159E+03   -0.13138E+01   -0.27070E+02   876   0.319E+01    0.206E+01
DAV:   2    -0.486544564887E+03   -0.12506E+03   -0.92722E+02  1176   0.501E+01    0.154E+02
DAV:   3    -0.335457333839E+03    0.15109E+03   -0.91637E+02  1236   0.614E+01    0.192E+01
DAV:   4    -0.359940369268E+03   -0.24483E+02   -0.24720E+02  1152   0.250E+01    0.283E+01
DAV:   5    -0.365408650138E+03   -0.54683E+01   -0.96204E+01  1188   0.189E+01    0.289E+01
DAV:   6    -0.364968580310E+03    0.44007E+00   -0.50276E+01  1188   0.158E+01    0.253E+01
DAV:   7    -0.365742473171E+03   -0.77389E+00   -0.36512E+01  1188   0.129E+01    0.269E+01
DAV:   8    -0.362567963586E+03    0.31745E+01   -0.20374E+01  1104   0.991E+00    0.115E+01
DAV:   9    -0.362718161641E+03   -0.15020E+00   -0.84395E+00  1140   0.561E+00    0.109E+01
DAV:  10    -0.363069527267E+03   -0.35137E+00   -0.62512E+00  1188   0.495E+00    0.135E+01
DAV:  11    -0.362556810197E+03    0.51272E+00   -0.45266E+00  1140   0.485E+00    0.963E+00
DAV:  12    -0.362387090275E+03    0.16972E+00   -0.27664E+00  1116   0.359E+00    0.806E+00
DAV:  13    -0.362302144167E+03    0.84946E-01   -0.21436E+00  1116   0.333E+00    0.745E+00
DAV:  14    -0.362174639368E+03    0.12750E+00   -0.19479E+00  1092   0.283E+00    0.651E+00
DAV:  15    -0.361999906259E+03    0.17473E+00   -0.10760E+00  1104   0.235E+00    0.462E+00
DAV:  16    -0.362020250612E+03   -0.20344E-01   -0.71489E-01  1140   0.177E+00    0.497E+00
DAV:  17    -0.361993935244E+03    0.26315E-01   -0.53612E-01  1152   0.167E+00    0.485E+00
DAV:  18    -0.361928111120E+03    0.65824E-01   -0.32834E-01  1176   0.136E+00    0.362E+00
DAV:  19    -0.361921114625E+03    0.69965E-02   -0.21881E-01  1152   0.102E+00    0.324E+00
DAV:  20    -0.361933575665E+03   -0.12461E-01   -0.32562E-01  1080   0.120E+00    0.361E+00
DAV:  21    -0.361886499008E+03    0.47077E-01   -0.30674E-01  1164   0.116E+00    0.241E+00
DAV:  22    -0.361878778566E+03    0.77204E-02   -0.21610E-01  1116   0.966E-01    0.196E+00
DAV:  23    -0.361875607039E+03    0.31715E-02   -0.16596E-01  1068   0.845E-01    0.171E+00
DAV:  24    -0.361863536655E+03    0.12070E-01   -0.15099E-01  1056   0.874E-01    0.117E+00
DAV:  25    -0.361860144960E+03    0.33917E-02   -0.78076E-02  1104   0.610E-01    0.703E-01
DAV:  26    -0.361869760947E+03   -0.96160E-02   -0.64892E-02  1152   0.542E-01    0.146E+00
DAV:  27    -0.361860048490E+03    0.97125E-02   -0.49426E-02  1140   0.497E-01    0.719E-01
DAV:  28    -0.361860976228E+03   -0.92774E-03   -0.22196E-02  1104   0.308E-01    0.505E-01
DAV:  29    -0.361862174538E+03   -0.11983E-02   -0.14516E-02   840   0.265E-01    0.632E-01
DAV:  30    -0.361860052465E+03    0.21221E-02   -0.10189E-02   732   0.231E-01    0.242E-01
DAV:  31    -0.361860384134E+03   -0.33167E-03   -0.43394E-03   816   0.145E-01    0.246E-01
DAV:  32    -0.361860393912E+03   -0.97785E-05   -0.34213E-03   744   0.126E-01    0.227E-01
DAV:  33    -0.361860142532E+03    0.25138E-03   -0.18123E-03   732   0.103E-01    0.102E-01
DAV:  34    -0.361860177021E+03   -0.34490E-04   -0.53602E-04   648   0.596E-02
   6 F= -.36186018E+03 E0= -.36182426E+03  d E =-.168575E+01
 trial-energy change:   -1.685745  1 .order   -1.766773   -2.529567   -1.003979
 step:   4.0299(harm=  4.0299)  dis= 0.15360  next Energy=  -362.271560 (dE=-0.210E+01)
 bond charge predicted
       N       E                     dE             d eps       ncg     rms          rms(c)
DAV:   1    -0.361784556867E+03    0.75586E-01   -0.11318E+02   804   0.200E+01    0.107E+01
DAV:   2    -0.402756532541E+03   -0.40972E+02   -0.25302E+02  1116   0.315E+01    0.102E+02
DAV:   3    -0.356820521457E+03    0.45936E+02   -0.42258E+02  1128   0.410E+01    0.112E+01
DAV:   4    -0.362742331579E+03   -0.59218E+01   -0.62827E+01  1080   0.128E+01    0.124E+01
DAV:   5    -0.364220063966E+03   -0.14777E+01   -0.16804E+01  1188   0.826E+00    0.183E+01
DAV:   6    -0.362896022277E+03    0.13240E+01   -0.81216E+00  1164   0.705E+00    0.106E+01
DAV:   7    -0.362884068701E+03    0.11954E-01   -0.58709E+00  1128   0.484E+00    0.100E+01
DAV:   8    -0.362378785593E+03    0.50528E+00   -0.29137E+00  1128   0.372E+00    0.371E+00
DAV:   9    -0.362497391297E+03   -0.11861E+00   -0.15839E+00  1128   0.267E+00    0.567E+00
DAV:  10    -0.362485673283E+03    0.11718E-01   -0.14904E+00  1128   0.264E+00    0.586E+00
DAV:  11    -0.362391708343E+03    0.93965E-01   -0.10285E+00  1116   0.225E+00    0.457E+00
DAV:  12    -0.362335718324E+03    0.55990E-01   -0.55669E-01  1128   0.164E+00    0.258E+00
DAV:  13    -0.362353117077E+03   -0.17399E-01   -0.32690E-01  1104   0.120E+00    0.271E+00
DAV:  14    -0.362351278590E+03    0.18385E-02   -0.23611E-01  1152   0.106E+00    0.273E+00
DAV:  15    -0.362320944033E+03    0.30335E-01   -0.15512E-01  1104   0.861E-01    0.132E+00
DAV:  16    -0.362338033175E+03   -0.17089E-01   -0.14377E-01  1092   0.725E-01    0.200E+00
DAV:  17    -0.362325750149E+03    0.12283E-01   -0.13523E-01  1104   0.801E-01    0.163E+00
DAV:  18    -0.362318385844E+03    0.73643E-02   -0.70781E-02  1164   0.600E-01    0.880E-01
DAV:  19    -0.362322444813E+03   -0.40590E-02   -0.56959E-02  1128   0.491E-01    0.105E+00
DAV:  20    -0.362320171909E+03    0.22729E-02   -0.42008E-02  1152   0.443E-01    0.771E-01
DAV:  21    -0.362318042200E+03    0.21297E-02   -0.25179E-02  1080   0.367E-01    0.471E-01
DAV:  22    -0.362318336778E+03   -0.29458E-03   -0.11627E-02   948   0.233E-01    0.474E-01
DAV:  23    -0.362319837623E+03   -0.15008E-02   -0.13224E-02   816   0.240E-01    0.709E-01
DAV:  24    -0.362317646046E+03    0.21916E-02   -0.99891E-03   756   0.220E-01    0.302E-01
DAV:  25    -0.362318095299E+03   -0.44925E-03   -0.40436E-03   744   0.137E-01    0.296E-01
DAV:  26    -0.362317958717E+03    0.13658E-03   -0.24711E-03   708   0.111E-01    0.242E-01
DAV:  27    -0.362317748424E+03    0.21029E-03   -0.13158E-03   720   0.856E-02    0.144E-01
DAV:  28    -0.362317814457E+03   -0.66033E-04   -0.78311E-04   684   0.644E-02
   7 F= -.36231781E+03 E0= -.36230393E+03  d E =-.214338E+01
 curvature:  -2.60 expect dE=-0.393E+00 dE for cont linesearch -0.565E-01
 ZBRENT: increasing intervall
 opt :   7.2287  next Energy=  -362.089562 (dE=-0.192E+01)
 bond charge predicted
       N       E                     dE             d eps       ncg     rms          rms(c)
DAV:   1    -0.359341702230E+03    0.29760E+01   -0.44542E+02   876   0.424E+01    0.154E+01
DAV:   2    -0.439513550734E+03   -0.80172E+02   -0.61064E+02  1128   0.479E+01    0.138E+02
DAV:   3    -0.350270059598E+03    0.89243E+02   -0.84451E+02  1128   0.547E+01    0.216E+01
DAV:   4    -0.362456838719E+03   -0.12187E+02   -0.14201E+02  1116   0.197E+01    0.142E+01
DAV:   5    -0.363273049548E+03   -0.81621E+00   -0.23590E+01  1128   0.851E+00    0.113E+01
DAV:   6    -0.363792637877E+03   -0.51959E+00   -0.86458E+00  1104   0.713E+00    0.161E+01
DAV:   7    -0.362956081079E+03    0.83656E+00   -0.55720E+00  1116   0.556E+00    0.965E+00
DAV:   8    -0.362801451575E+03    0.15463E+00   -0.40383E+00  1212   0.430E+00    0.811E+00
DAV:   9    -0.363255520869E+03   -0.45407E+00   -0.55233E+00  1140   0.476E+00    0.125E+01
DAV:  10    -0.362696647137E+03    0.55887E+00   -0.45401E+00  1116   0.445E+00    0.766E+00
DAV:  11    -0.362545353224E+03    0.15129E+00   -0.15773E+00  1140   0.285E+00    0.514E+00
DAV:  12    -0.362501204771E+03    0.44148E-01   -0.76751E-01  1092   0.194E+00    0.388E+00
DAV:  13    -0.362498749511E+03    0.24553E-02   -0.46329E-01  1104   0.146E+00    0.358E+00
DAV:  14    -0.362492318700E+03    0.64308E-02   -0.48348E-01  1104   0.147E+00    0.358E+00
DAV:  15    -0.362429964973E+03    0.62354E-01   -0.32772E-01  1104   0.133E+00    0.155E+00
DAV:  16    -0.362464751858E+03   -0.34787E-01   -0.21661E-01  1152   0.995E-01    0.300E+00
DAV:  17    -0.362446039206E+03    0.18713E-01   -0.23865E-01  1104   0.109E+00    0.223E+00
DAV:  18    -0.362432125660E+03    0.13914E-01   -0.15253E-01  1152   0.833E-01    0.115E+00
DAV:  19    -0.362443310961E+03   -0.11185E-01   -0.11816E-01  1140   0.727E-01    0.157E+00
DAV:  20    -0.362451611459E+03   -0.83005E-02   -0.14351E-01  1080   0.811E-01    0.191E+00
DAV:  21    -0.362439740697E+03    0.11871E-01   -0.10490E-01  1164   0.719E-01    0.121E+00
DAV:  22    -0.362439383373E+03    0.35732E-03   -0.53255E-02  1128   0.477E-01    0.968E-01
DAV:  23    -0.362440570316E+03   -0.11869E-02   -0.40739E-02  1116   0.420E-01    0.103E+00
DAV:  24    -0.362435692905E+03    0.48774E-02   -0.28200E-02   960   0.363E-01    0.581E-01
DAV:  25    -0.362435518854E+03    0.17405E-03   -0.89688E-03   864   0.217E-01    0.495E-01
DAV:  26    -0.362435883799E+03   -0.36494E-03   -0.85913E-03   792   0.198E-01    0.582E-01
DAV:  27    -0.362434320672E+03    0.15631E-02   -0.59824E-03   768   0.178E-01    0.292E-01
DAV:  28    -0.362434334710E+03   -0.14038E-04   -0.16571E-03   744   0.997E-02    0.221E-01
DAV:  29    -0.362434259773E+03    0.74937E-04   -0.11998E-03   720   0.853E-02    0.193E-01
DAV:  30    -0.362434126312E+03    0.13346E-03   -0.72953E-04   672   0.728E-02    0.119E-01
DAV:  31    -0.362434172206E+03   -0.45894E-04   -0.47654E-04   636   0.570E-02
   8 F= -.36243417E+03 E0= -.36243994E+03  d E =-.225974E+01
 curvature:  10.51 expect dE= 0.166E+01 dE for cont linesearch  0.372E-01
 ZBRENT: bracketing found
 ZBRENT: interpolating
 opt :   6.3086  next Energy=  -362.465910 (dE=-0.229E+01)
 bond charge predicted
       N       E                     dE             d eps       ncg     rms          rms(c)
DAV:   1    -0.362189031109E+03    0.24510E+00   -0.35847E+01   732   0.109E+01    0.385E+00
DAV:   2    -0.364887006283E+03   -0.26980E+01   -0.22613E+01   972   0.126E+01    0.149E+01
DAV:   3    -0.362424104728E+03    0.24629E+01   -0.12541E+01  1092   0.789E+00    0.377E+00
DAV:   4    -0.362638133946E+03   -0.21403E+00   -0.29538E+00  1140   0.332E+00    0.573E+00
DAV:   5    -0.362822386737E+03   -0.18425E+00   -0.21607E+00  1140   0.324E+00    0.875E+00
DAV:   6    -0.362468475928E+03    0.35391E+00   -0.14997E+00  1140   0.272E+00    0.302E+00
DAV:   7    -0.362508652220E+03   -0.40176E-01   -0.72554E-01  1128   0.186E+00    0.297E+00
DAV:   8    -0.362519059374E+03   -0.10407E-01   -0.59519E-01  1044   0.155E+00    0.309E+00
DAV:   9    -0.362490744225E+03    0.28315E-01   -0.35816E-01  1152   0.134E+00    0.226E+00
DAV:  10    -0.362472720968E+03    0.18023E-01   -0.20209E-01  1068   0.962E-01    0.107E+00
DAV:  11    -0.362494619804E+03   -0.21899E-01   -0.14057E-01  1128   0.830E-01    0.228E+00
DAV:  12    -0.362475399024E+03    0.19221E-01   -0.11281E-01  1116   0.738E-01    0.113E+00
DAV:  13    -0.362472181130E+03    0.32179E-02   -0.39569E-02  1104   0.448E-01    0.349E-01
DAV:  14    -0.362474568310E+03   -0.23872E-02   -0.20380E-02   972   0.308E-01    0.594E-01
DAV:  15    -0.362475784549E+03   -0.12162E-02   -0.19245E-02   828   0.303E-01    0.808E-01
DAV:  16    -0.362473063105E+03    0.27214E-02   -0.14239E-02   780   0.273E-01    0.334E-01
DAV:  17    -0.362473623253E+03   -0.56015E-03   -0.77321E-03   792   0.194E-01    0.336E-01
DAV:  18    -0.362474069141E+03   -0.44589E-03   -0.75743E-03   804   0.189E-01    0.426E-01
DAV:  19    -0.362473407644E+03    0.66150E-03   -0.55719E-03   732   0.168E-01    0.262E-01
DAV:  20    -0.362473196433E+03    0.21121E-03   -0.19806E-03   744   0.105E-01    0.958E-02
DAV:  21    -0.362473300500E+03   -0.10407E-03   -0.10718E-03   696   0.722E-02    0.129E-01
DAV:  22    -0.362473225549E+03    0.74951E-04   -0.53076E-04   612   0.563E-02
   9 F= -.36247323E+03 E0= -.36248103E+03  d E =-.229879E+01
 curvature:  -8.96 expect dE=-0.135E+01 dE for cont linesearch -0.221E-02
 trial: gam= 0.06969 g(F)=  0.150E+00 g(S)=  0.000E+00 ort =-0.182E-01 (trialstep = 0.321E+01)
 search vector abs. value=  0.154E+00
 bond charge predicted
       N       E                     dE             d eps       ncg     rms          rms(c)
DAV:   1    -0.362379338371E+03    0.93962E-01   -0.47296E+01   732   0.130E+01    0.395E+00
DAV:   2    -0.364643205257E+03   -0.22639E+01   -0.17480E+01  1008   0.122E+01    0.168E+01
DAV:   3    -0.363048162618E+03    0.15950E+01   -0.11156E+01  1056   0.750E+00    0.855E+00
DAV:   4    -0.362998765430E+03    0.49397E-01   -0.30584E+00  1080   0.410E+00    0.589E+00
DAV:   5    -0.363157198007E+03   -0.15843E+00   -0.23964E+00  1104   0.302E+00    0.728E+00
DAV:   6    -0.362896991134E+03    0.26021E+00   -0.17141E+00  1068   0.268E+00    0.254E+00
DAV:   7    -0.363098209189E+03   -0.20122E+00   -0.16010E+00  1056   0.268E+00    0.634E+00
DAV:   8    -0.363155092951E+03   -0.56884E-01   -0.18266E+00  1116   0.297E+00    0.729E+00
DAV:   9    -0.362968381299E+03    0.18671E+00   -0.13541E+00  1152   0.273E+00    0.455E+00
DAV:  10    -0.362914988197E+03    0.53393E-01   -0.67817E-01  1116   0.179E+00    0.229E+00
DAV:  11    -0.362925980663E+03   -0.10992E-01   -0.34675E-01  1104   0.129E+00    0.188E+00
DAV:  12    -0.362912766690E+03    0.13214E-01   -0.15128E-01  1092   0.913E-01    0.135E+00
DAV:  13    -0.362907030191E+03    0.57365E-02   -0.56347E-02  1116   0.562E-01    0.901E-01
DAV:  14    -0.362907854355E+03   -0.82416E-03   -0.35131E-02  1020   0.409E-01    0.792E-01
DAV:  15    -0.362909756026E+03   -0.19017E-02   -0.32440E-02  1068   0.380E-01    0.937E-01
DAV:  16    -0.362905568464E+03    0.41876E-02   -0.23813E-02   924   0.330E-01    0.384E-01
DAV:  17    -0.362906715399E+03   -0.11469E-02   -0.11023E-02   804   0.217E-01    0.429E-01
DAV:  18    -0.362906792739E+03   -0.77340E-04   -0.75426E-03   744   0.192E-01    0.385E-01
DAV:  19    -0.362906183890E+03    0.60885E-03   -0.44206E-03   720   0.159E-01    0.185E-01
DAV:  20    -0.362906378476E+03   -0.19459E-03   -0.27588E-03   756   0.116E-01    0.202E-01
DAV:  21    -0.362906488158E+03   -0.10968E-03   -0.24374E-03   756   0.113E-01    0.222E-01
DAV:  22    -0.362906219441E+03    0.26872E-03   -0.16474E-03   708   0.990E-02    0.732E-02
DAV:  23    -0.362906270061E+03   -0.50620E-04   -0.57709E-04   660   0.563E-02
  10 F= -.36290627E+03 E0= -.36290857E+03  d E =-.433045E+00
 trial-energy change:   -0.433045  1 .order   -0.431250   -0.478134   -0.384367
 step:  12.3242(harm= 16.3482)  dis= 0.09231  next Energy=  -363.494119 (dE=-0.102E+01)
 bond charge predicted
       N       E                     dE             d eps       ncg     rms          rms(c)
DAV:   1    -0.359595323816E+03    0.33109E+01   -0.38634E+02   804   0.388E+01    0.130E+01
DAV:   2    -0.375691313294E+03   -0.16096E+02   -0.13407E+02   996   0.356E+01    0.394E+01
DAV:   3    -0.365635044465E+03    0.10056E+02   -0.79134E+01  1056   0.228E+01    0.254E+01
DAV:   4    -0.364894824058E+03    0.74022E+00   -0.30343E+01  1092   0.138E+01    0.214E+01
DAV:   5    -0.367710791459E+03   -0.28160E+01   -0.33361E+01  1116   0.114E+01    0.342E+01
DAV:   6    -0.364884233907E+03    0.28266E+01   -0.39920E+01  1104   0.115E+01    0.155E+01
DAV:   7    -0.364087982532E+03    0.79625E+00   -0.16026E+01  1104   0.914E+00    0.117E+01
DAV:   8    -0.365508294100E+03   -0.14203E+01   -0.10737E+01  1128   0.848E+00    0.208E+01
DAV:   9    -0.364486405843E+03    0.10219E+01   -0.11453E+01  1104   0.850E+00    0.137E+01
DAV:  10    -0.363702157459E+03    0.78425E+00   -0.83886E+00  1116   0.691E+00    0.770E+00
DAV:  11    -0.363942896014E+03   -0.24074E+00   -0.50390E+00  1128   0.488E+00    0.980E+00
DAV:  12    -0.363754750114E+03    0.18815E+00   -0.30487E+00  1092   0.410E+00    0.729E+00
DAV:  13    -0.363560215610E+03    0.19453E+00   -0.14867E+00  1140   0.288E+00    0.464E+00
DAV:  14    -0.363501271702E+03    0.58944E-01   -0.52357E-01  1092   0.165E+00    0.238E+00
DAV:  15    -0.363513191389E+03   -0.11920E-01   -0.24782E-01  1128   0.111E+00    0.234E+00
DAV:  16    -0.363509083774E+03    0.41076E-02   -0.18816E-01  1140   0.104E+00    0.197E+00
DAV:  17    -0.363507152172E+03    0.19316E-02   -0.16228E-01  1152   0.866E-01    0.162E+00
DAV:  18    -0.363523437122E+03   -0.16285E-01   -0.19044E-01  1092   0.896E-01    0.177E+00
DAV:  19    -0.363514238968E+03    0.91982E-02   -0.14947E-01  1104   0.839E-01    0.963E-01
DAV:  20    -0.363514717695E+03   -0.47873E-03   -0.76295E-02  1128   0.651E-01    0.866E-01
DAV:  21    -0.363523139565E+03   -0.84219E-02   -0.77517E-02  1116   0.584E-01    0.153E+00
DAV:  22    -0.363514753550E+03    0.83860E-02   -0.59454E-02  1020   0.547E-01    0.902E-01
DAV:  23    -0.363512821241E+03    0.19323E-02   -0.29660E-02  1008   0.383E-01    0.395E-01
DAV:  24    -0.363514537872E+03   -0.17166E-02   -0.15501E-02   876   0.280E-01    0.551E-01
DAV:  25    -0.363513388760E+03    0.11491E-02   -0.10945E-02   732   0.231E-01    0.349E-01
DAV:  26    -0.363513058791E+03    0.32997E-03   -0.43335E-03   744   0.152E-01    0.173E-01
DAV:  27    -0.363513171782E+03   -0.11299E-03   -0.21254E-03   756   0.110E-01    0.146E-01
DAV:  28    -0.363513180038E+03   -0.82555E-05   -0.11506E-03   684   0.838E-02    0.109E-01
DAV:  29    -0.363513142342E+03    0.37696E-04   -0.50713E-04   660   0.630E-02
  11 F= -.36351314E+03 E0= -.36347747E+03  d E =-.103992E+01
 curvature:  -7.67 expect dE=-0.353E+00 dE for cont linesearch -0.300E-03
 trial: gam= 0.26106 g(F)=  0.461E-01 g(S)=  0.000E+00 ort = 0.246E-02 (trialstep = 0.503E+01)
 search vector abs. value=  0.579E-01
 bond charge predicted
       N       E                     dE             d eps       ncg     rms          rms(c)
DAV:   1    -0.363359976825E+03    0.15320E+00   -0.41528E+01   744   0.124E+01    0.390E+00
DAV:   2    -0.366640212959E+03   -0.32802E+01   -0.24292E+01  1008   0.146E+01    0.187E+01
DAV:   3    -0.363951732807E+03    0.26885E+01   -0.15872E+01  1020   0.100E+01    0.818E+00
DAV:   4    -0.363755950588E+03    0.19578E+00   -0.41891E+00  1080   0.469E+00    0.433E+00
DAV:   5    -0.363914971577E+03   -0.15902E+00   -0.16119E+00  1152   0.298E+00    0.664E+00
DAV:   6    -0.363751003266E+03    0.16397E+00   -0.11377E+00  1116   0.249E+00    0.310E+00
DAV:   7    -0.363751904493E+03   -0.90123E-03   -0.58634E-01  1116   0.165E+00    0.283E+00
DAV:   8    -0.363790319032E+03   -0.38415E-01   -0.51337E-01  1116   0.162E+00    0.380E+00
DAV:   9    -0.363768897396E+03    0.21422E-01   -0.44245E-01  1128   0.157E+00    0.324E+00
DAV:  10    -0.363736546945E+03    0.32350E-01   -0.34641E-01  1116   0.124E+00    0.180E+00
DAV:  11    -0.363744307467E+03   -0.77605E-02   -0.22626E-01  1140   0.109E+00    0.152E+00
DAV:  12    -0.363736953792E+03    0.73537E-02   -0.11328E-01  1140   0.767E-01    0.106E+00
DAV:  13    -0.363732849041E+03    0.41048E-02   -0.43069E-02  1104   0.433E-01    0.635E-01
DAV:  14    -0.363733310561E+03   -0.46152E-03   -0.24088E-02  1032   0.342E-01    0.511E-01
DAV:  15    -0.363735595451E+03   -0.22849E-02   -0.20037E-02  1008   0.327E-01    0.823E-01
DAV:  16    -0.363733371617E+03    0.22238E-02   -0.17630E-02   744   0.318E-01    0.548E-01
DAV:  17    -0.363732976295E+03    0.39532E-03   -0.98968E-03   852   0.242E-01    0.352E-01
DAV:  18    -0.363733227355E+03   -0.25106E-03   -0.64547E-03   720   0.179E-01    0.330E-01
DAV:  19    -0.363733007645E+03    0.21971E-03   -0.36566E-03   744   0.140E-01    0.203E-01
DAV:  20    -0.363732870088E+03    0.13756E-03   -0.17910E-03   684   0.103E-01    0.104E-01
DAV:  21    -0.363732982975E+03   -0.11289E-03   -0.10677E-03   756   0.806E-02    0.159E-01
DAV:  22    -0.363732959262E+03    0.23713E-04   -0.79798E-04   648   0.701E-02
  12 F= -.36373296E+03 E0= -.36370401E+03  d E =-.219817E+00
 trial-energy change:   -0.219817  1 .order   -0.217898   -0.235031   -0.200764
 step:  18.2913(harm= 34.4980)  dis= 0.11260  next Energy=  -364.032813 (dE=-0.520E+00)
 bond charge predicted
       N       E                     dE             d eps       ncg     rms          rms(c)
DAV:   1    -0.361702281045E+03    0.20307E+01   -0.29177E+02   804   0.346E+01    0.117E+01
DAV:   2    -0.389138090203E+03   -0.27436E+02   -0.20333E+02  1092   0.430E+01    0.578E+01
DAV:   3    -0.367862493803E+03    0.21276E+02   -0.14598E+02  1116   0.310E+01    0.283E+01
DAV:   4    -0.364077891421E+03    0.37846E+01   -0.47103E+01  1080   0.159E+01    0.132E+01
DAV:   5    -0.364980780574E+03   -0.90289E+00   -0.14373E+01  1140   0.874E+00    0.154E+01
DAV:   6    -0.365479843690E+03   -0.49906E+00   -0.12964E+01  1104   0.830E+00    0.162E+01
DAV:   7    -0.364231128654E+03    0.12487E+01   -0.10903E+01  1080   0.690E+00    0.757E+00
DAV:   8    -0.364438515806E+03   -0.20739E+00   -0.36596E+00  1164   0.461E+00    0.103E+01
DAV:   9    -0.364369430339E+03    0.69085E-01   -0.44174E+00  1092   0.459E+00    0.826E+00
DAV:  10    -0.364322560265E+03    0.46870E-01   -0.35547E+00  1116   0.412E+00    0.736E+00
DAV:  11    -0.364197363689E+03    0.12520E+00   -0.25812E+00  1116   0.370E+00    0.649E+00
DAV:  12    -0.364128079277E+03    0.69284E-01   -0.19921E+00  1116   0.293E+00    0.418E+00
DAV:  13    -0.364133229616E+03   -0.51503E-02   -0.97674E-01  1140   0.224E+00    0.403E+00
DAV:  14    -0.364083314123E+03    0.49915E-01   -0.48116E-01  1140   0.174E+00    0.301E+00
DAV:  15    -0.364057312206E+03    0.26002E-01   -0.25567E-01  1104   0.125E+00    0.134E+00
DAV:  16    -0.364090117532E+03   -0.32805E-01   -0.22257E-01  1164   0.104E+00    0.228E+00
DAV:  17    -0.364068592073E+03    0.21525E-01   -0.18317E-01  1080   0.962E-01    0.139E+00
DAV:  18    -0.364069930163E+03   -0.13381E-02   -0.88839E-02  1200   0.634E-01    0.122E+00
DAV:  19    -0.364071748774E+03   -0.18186E-02   -0.78226E-02  1104   0.609E-01    0.110E+00
DAV:  20    -0.364066738411E+03    0.50104E-02   -0.46927E-02  1044   0.482E-01    0.607E-01
DAV:  21    -0.364067662214E+03   -0.92380E-03   -0.26253E-02  1020   0.341E-01    0.652E-01
DAV:  22    -0.364067434562E+03    0.22765E-03   -0.21524E-02   888   0.319E-01    0.521E-01
DAV:  23    -0.364066935866E+03    0.49870E-03   -0.13730E-02   816   0.277E-01    0.411E-01
DAV:  24    -0.364066404644E+03    0.53122E-03   -0.61255E-03   744   0.182E-01    0.275E-01
DAV:  25    -0.364066482561E+03   -0.77917E-04   -0.40645E-03   756   0.148E-01    0.206E-01
DAV:  26    -0.364066460249E+03    0.22312E-04   -0.20512E-03   708   0.109E-01    0.138E-01
DAV:  27    -0.364066372888E+03    0.87361E-04   -0.92381E-04   708   0.782E-02
  13 F= -.36406637E+03 E0= -.36405004E+03  d E =-.553231E+00
 curvature: -14.91 expect dE=-0.557E+00 dE for cont linesearch -0.979E-02
 trial: gam= 0.53149 g(F)=  0.373E-01 g(S)=  0.000E+00 ort = 0.617E-02 (trialstep = 0.738E+01)
 search vector abs. value=  0.602E-01
 bond charge predicted
       N       E                     dE             d eps       ncg     rms          rms(c)
DAV:   1    -0.363562455459E+03    0.50400E+00   -0.92803E+01   780   0.189E+01    0.654E+00
DAV:   2    -0.381897278046E+03   -0.18335E+02   -0.86158E+01  1056   0.263E+01    0.554E+01
DAV:   3    -0.363664818462E+03    0.18232E+02   -0.81468E+01  1080   0.222E+01    0.139E+01
DAV:   4    -0.364418105794E+03   -0.75329E+00   -0.18242E+01  1104   0.829E+00    0.951E+00
DAV:   5    -0.364669134976E+03   -0.25103E+00   -0.67773E+00  1116   0.573E+00    0.869E+00
DAV:   6    -0.364599067935E+03    0.70067E-01   -0.39707E+00  1128   0.457E+00    0.698E+00
DAV:   7    -0.364459574048E+03    0.13949E+00   -0.23483E+00  1116   0.361E+00    0.614E+00
DAV:   8    -0.364374652726E+03    0.84921E-01   -0.12620E+00  1092   0.265E+00    0.405E+00
DAV:   9    -0.364386286794E+03   -0.11634E-01   -0.99482E-01  1116   0.222E+00    0.350E+00
DAV:  10    -0.364374947531E+03    0.11339E-01   -0.71210E-01  1116   0.185E+00    0.314E+00
DAV:  11    -0.364353156879E+03    0.21791E-01   -0.51763E-01  1104   0.159E+00    0.263E+00
DAV:  12    -0.364340467677E+03    0.12689E-01   -0.30653E-01  1128   0.123E+00    0.188E+00
DAV:  13    -0.364354663783E+03   -0.14196E-01   -0.22220E-01  1128   0.105E+00    0.224E+00
DAV:  14    -0.364338773593E+03    0.15890E-01   -0.13954E-01  1128   0.940E-01    0.165E+00
DAV:  15    -0.364331003426E+03    0.77702E-02   -0.75256E-02  1116   0.641E-01    0.706E-01
DAV:  16    -0.364346528022E+03   -0.15525E-01   -0.96812E-02  1128   0.650E-01    0.166E+00
DAV:  17    -0.364336264394E+03    0.10264E-01   -0.81352E-02  1068   0.608E-01    0.107E+00
DAV:  18    -0.364333090102E+03    0.31743E-02   -0.39102E-02  1032   0.441E-01    0.413E-01
DAV:  19    -0.364334622901E+03   -0.15328E-02   -0.19164E-02   984   0.299E-01    0.476E-01
DAV:  20    -0.364334308415E+03    0.31449E-03   -0.12199E-02   816   0.240E-01    0.451E-01
DAV:  21    -0.364333464707E+03    0.84371E-03   -0.64267E-03   756   0.177E-01    0.207E-01
DAV:  22    -0.364333553182E+03   -0.88475E-04   -0.24914E-03   732   0.117E-01    0.154E-01
DAV:  23    -0.364333657283E+03   -0.10410E-03   -0.15694E-03   732   0.913E-02    0.193E-01
DAV:  24    -0.364333507597E+03    0.14969E-03   -0.10971E-03   696   0.798E-02    0.809E-02
DAV:  25    -0.364333540718E+03   -0.33121E-04   -0.56086E-04   636   0.571E-02
  14 F= -.36433354E+03 E0= -.36431453E+03  d E =-.267168E+00
 trial-energy change:   -0.267168  1 .order   -0.265542   -0.299816   -0.231269
 step:  24.3370(harm= 32.2892)  dis= 0.11848  next Energy=  -364.618804 (dE=-0.552E+00)
 bond charge predicted
       N       E                     dE             d eps       ncg     rms          rms(c)
DAV:   1    -0.360785571208E+03    0.35479E+01   -0.49416E+02   828   0.463E+01    0.165E+01
DAV:   2    -0.465465795195E+03   -0.10468E+03   -0.58621E+02  1140   0.656E+01    0.129E+02
DAV:   3    -0.370771350929E+03    0.94694E+02   -0.59734E+02  1164   0.540E+01    0.532E+01
DAV:   4    -0.363769628494E+03    0.70017E+01   -0.16359E+02  1176   0.253E+01    0.154E+01
DAV:   5    -0.365777748392E+03   -0.20081E+01   -0.49494E+01  1092   0.143E+01    0.162E+01
DAV:   6    -0.367204390542E+03   -0.14266E+01   -0.20138E+01  1176   0.105E+01    0.256E+01
DAV:   7    -0.365057419638E+03    0.21470E+01   -0.15012E+01  1140   0.914E+00    0.129E+01
DAV:   8    -0.364958551472E+03    0.98868E-01   -0.85616E+00  1152   0.638E+00    0.101E+01
DAV:   9    -0.365323093211E+03   -0.36454E+00   -0.71119E+00  1116   0.625E+00    0.123E+01
DAV:  10    -0.365064673480E+03    0.25842E+00   -0.45840E+00  1116   0.555E+00    0.101E+01
DAV:  11    -0.364820688921E+03    0.24398E+00   -0.35664E+00  1164   0.456E+00    0.810E+00
DAV:  12    -0.364605001474E+03    0.21569E+00   -0.24770E+00  1104   0.355E+00    0.423E+00
DAV:  13    -0.364726941341E+03   -0.12194E+00   -0.17582E+00  1140   0.284E+00    0.592E+00
DAV:  14    -0.364605752371E+03    0.12119E+00   -0.11998E+00  1092   0.254E+00    0.355E+00
DAV:  15    -0.364586434613E+03    0.19318E-01   -0.61794E-01  1140   0.171E+00    0.266E+00
DAV:  16    -0.364604998698E+03   -0.18564E-01   -0.33708E-01  1140   0.133E+00    0.307E+00
DAV:  17    -0.364585118572E+03    0.19880E-01   -0.25199E-01  1116   0.126E+00    0.233E+00
DAV:  18    -0.364580995080E+03    0.41235E-02   -0.21321E-01  1152   0.108E+00    0.200E+00
DAV:  19    -0.364594057419E+03   -0.13062E-01   -0.25891E-01  1152   0.109E+00    0.224E+00
DAV:  20    -0.364586916963E+03    0.71405E-02   -0.21466E-01  1104   0.102E+00    0.166E+00
DAV:  21    -0.364576518716E+03    0.10398E-01   -0.12314E-01  1092   0.776E-01    0.103E+00
DAV:  22    -0.364573854669E+03    0.26640E-02   -0.48171E-02  1152   0.503E-01    0.629E-01
DAV:  23    -0.364575183462E+03   -0.13288E-02   -0.28806E-02  1044   0.359E-01    0.695E-01
DAV:  24    -0.364574487832E+03    0.69563E-03   -0.21258E-02   888   0.312E-01    0.612E-01
DAV:  25    -0.364572945950E+03    0.15419E-02   -0.10542E-02   720   0.229E-01    0.218E-01
DAV:  26    -0.364573429642E+03   -0.48369E-03   -0.43520E-03   768   0.148E-01    0.228E-01
DAV:  27    -0.364573478591E+03   -0.48949E-04   -0.28863E-03   732   0.119E-01    0.171E-01
DAV:  28    -0.364573435019E+03    0.43573E-04   -0.17853E-03   708   0.101E-01    0.116E-01
DAV:  29    -0.364573509034E+03   -0.74016E-04   -0.10999E-03   732   0.790E-02    0.112E-01
DAV:  30    -0.364573592719E+03   -0.83684E-04   -0.86855E-04   684   0.705E-02
  15 F= -.36457359E+03 E0= -.36453951E+03  d E =-.507220E+00
 curvature: -21.51 expect dE=-0.223E+01 dE for cont linesearch -0.953E-02
 trial: gam= 2.44026 g(F)=  0.104E+00 g(S)=  0.000E+00 ort =-0.517E-02 (trialstep = 0.148E+01)
 search vector abs. value=  0.437E+00
 bond charge predicted
       N       E                     dE             d eps       ncg     rms          rms(c)
DAV:   1    -0.364455955409E+03    0.11755E+00   -0.26766E+01   780   0.985E+00    0.273E+00
DAV:   2    -0.367547480953E+03   -0.30915E+01   -0.16585E+01  1056   0.110E+01    0.218E+01
DAV:   3    -0.364520059146E+03    0.30274E+01   -0.10943E+01  1056   0.819E+00    0.555E+00
DAV:   4    -0.364709011579E+03   -0.18895E+00   -0.24958E+00  1116   0.328E+00    0.399E+00
DAV:   5    -0.364785668675E+03   -0.76657E-01   -0.12065E+00  1128   0.244E+00    0.444E+00
DAV:   6    -0.364708770207E+03    0.76898E-01   -0.67766E-01  1116   0.173E+00    0.202E+00
DAV:   7    -0.364697116381E+03    0.11654E-01   -0.27448E-01  1104   0.113E+00    0.125E+00
DAV:   8    -0.364716140154E+03   -0.19024E-01   -0.17977E-01  1140   0.951E-01    0.207E+00
DAV:   9    -0.364712670699E+03    0.34695E-02   -0.15072E-01  1140   0.941E-01    0.205E+00
DAV:  10    -0.364697592825E+03    0.15078E-01   -0.95057E-02  1176   0.771E-01    0.103E+00
DAV:  11    -0.364704557227E+03   -0.69644E-02   -0.77815E-02  1104   0.609E-01    0.133E+00
DAV:  12    -0.364702151564E+03    0.24057E-02   -0.65456E-02  1092   0.576E-01    0.979E-01
DAV:  13    -0.364698611705E+03    0.35399E-02   -0.36614E-02   984   0.413E-01    0.444E-01
DAV:  14    -0.364699453409E+03   -0.84170E-03   -0.16484E-02   828   0.307E-01    0.543E-01
DAV:  15    -0.364699875417E+03   -0.42201E-03   -0.13327E-02   900   0.278E-01    0.580E-01
DAV:  16    -0.364700149906E+03   -0.27449E-03   -0.13386E-02   756   0.277E-01    0.594E-01
DAV:  17    -0.364698604929E+03    0.15450E-02   -0.86072E-03   792   0.219E-01    0.253E-01
DAV:  18    -0.364698682044E+03   -0.77115E-04   -0.32374E-03   744   0.131E-01    0.161E-01
DAV:  19    -0.364698800576E+03   -0.11853E-03   -0.17871E-03   744   0.101E-01    0.185E-01
DAV:  20    -0.364698709522E+03    0.91054E-04   -0.11473E-03   696   0.826E-02    0.106E-01
DAV:  21    -0.364698684778E+03    0.24744E-04   -0.50939E-04   660   0.580E-02
  16 F= -.36469868E+03 E0= -.36466611E+03  d E =-.125092E+00
 ZBRENT: can't locate minimum, use default step
 trial-energy change:   -0.125092  1 .order   -0.125026   -0.135052   -0.115000
 step:   5.9395(harm= 10.0005)  dis= 0.08551  next Energy=  -365.028377 (dE=-0.455E+00)
 bond charge predicted
       N       E                     dE             d eps       ncg     rms          rms(c)
DAV:   1    -0.362747697813E+03    0.19510E+01   -0.24217E+02   792   0.307E+01    0.857E+00
DAV:   2    -0.388534326529E+03   -0.25787E+02   -0.14616E+02  1104   0.344E+01    0.572E+01
DAV:   3    -0.365764107012E+03    0.22770E+02   -0.94672E+01  1116   0.252E+01    0.241E+01
DAV:   4    -0.365010171470E+03    0.75394E+00   -0.30759E+01  1104   0.118E+01    0.121E+01
DAV:   5    -0.365350136571E+03   -0.33997E+00   -0.10992E+01  1104   0.748E+00    0.104E+01
DAV:   6    -0.365653813045E+03   -0.30368E+00   -0.71570E+00  1140   0.593E+00    0.126E+01
DAV:   7    -0.364928457721E+03    0.72536E+00   -0.51678E+00  1128   0.471E+00    0.440E+00
DAV:   8    -0.365093940409E+03   -0.16548E+00   -0.18322E+00  1152   0.310E+00    0.631E+00
DAV:   9    -0.365132058289E+03   -0.38118E-01   -0.16528E+00  1104   0.318E+00    0.664E+00
DAV:  10    -0.365040339939E+03    0.91718E-01   -0.15413E+00  1212   0.289E+00    0.540E+00
DAV:  11    -0.364946070620E+03    0.94269E-01   -0.95377E-01  1128   0.227E+00    0.284E+00
DAV:  12    -0.364970699008E+03   -0.24628E-01   -0.59792E-01  1140   0.173E+00    0.303E+00
DAV:  13    -0.364967293753E+03    0.34053E-02   -0.43065E-01  1128   0.151E+00    0.280E+00
DAV:  14    -0.364952226228E+03    0.15068E-01   -0.24660E-01  1140   0.127E+00    0.237E+00
DAV:  15    -0.364934655987E+03    0.17570E-01   -0.16091E-01  1104   0.985E-01    0.113E+00
DAV:  16    -0.364948950118E+03   -0.14294E-01   -0.13532E-01  1128   0.806E-01    0.175E+00
DAV:  17    -0.364947259695E+03    0.16904E-02   -0.13472E-01  1092   0.796E-01    0.158E+00
DAV:  18    -0.364936229103E+03    0.11031E-01   -0.86075E-02  1092   0.650E-01    0.618E-01
DAV:  19    -0.364941201267E+03   -0.49722E-02   -0.46625E-02  1080   0.461E-01    0.927E-01
DAV:  20    -0.364939729178E+03    0.14721E-02   -0.34231E-02  1044   0.411E-01    0.668E-01
DAV:  21    -0.364937641002E+03    0.20882E-02   -0.16143E-02   828   0.292E-01    0.233E-01
DAV:  22    -0.364938102897E+03   -0.46189E-03   -0.57055E-03   816   0.174E-01    0.290E-01
DAV:  23    -0.364937964130E+03    0.13877E-03   -0.36672E-03   744   0.144E-01    0.211E-01
DAV:  24    -0.364937930713E+03    0.33417E-04   -0.21634E-03   756   0.112E-01    0.179E-01
DAV:  25    -0.364937863322E+03    0.67391E-04   -0.13122E-03   744   0.902E-02    0.109E-01
DAV:  26    -0.364937975538E+03   -0.11222E-03   -0.11184E-03   720   0.779E-02    0.148E-01
DAV:  27    -0.364937915207E+03    0.60331E-04   -0.71206E-04   660   0.685E-02
  17 F= -.36493792E+03 E0= -.36491019E+03  d E =-.364322E+00
 curvature: -18.56 expect dE=-0.168E+01 dE for cont linesearch -0.303E-01
 ZBRENT: increasing intervall
 opt :  14.8486  next Energy=  -364.723901 (dE=-0.150E+00)
 bond charge predicted
       N       E                     dE             d eps       ncg     rms          rms(c)
DAV:   1    -0.355768947235E+03    0.91690E+01   -0.98559E+02   840   0.676E+01    0.185E+01
DAV:   2    -0.445066270462E+03   -0.89297E+02   -0.61404E+02  1140   0.727E+01    0.985E+01
DAV:   3    -0.376879238675E+03    0.68187E+02   -0.40965E+02  1176   0.502E+01    0.565E+01
DAV:   4    -0.366607870933E+03    0.10271E+02   -0.16704E+02  1116   0.282E+01    0.293E+01
DAV:   5    -0.365801835020E+03    0.80604E+00   -0.51802E+01  1164   0.166E+01    0.199E+01
DAV:   6    -0.366506897754E+03   -0.70506E+00   -0.30223E+01  1176   0.122E+01    0.221E+01
DAV:   7    -0.365947485105E+03    0.55941E+00   -0.25877E+01  1188   0.109E+01    0.175E+01
DAV:   8    -0.364856983785E+03    0.10905E+01   -0.13201E+01  1128   0.814E+00    0.998E+00
DAV:   9    -0.365878687195E+03   -0.10217E+01   -0.87582E+00  1128   0.728E+00    0.164E+01
DAV:  10    -0.365591866668E+03    0.28682E+00   -0.87388E+00  1164   0.749E+00    0.149E+01
DAV:  11    -0.364609404203E+03    0.98246E+00   -0.69678E+00  1128   0.556E+00    0.724E+00
DAV:  12    -0.364633661386E+03   -0.24257E-01   -0.26176E+00  1140   0.356E+00    0.652E+00
DAV:  13    -0.364714053161E+03   -0.80392E-01   -0.22443E+00  1152   0.350E+00    0.756E+00
DAV:  14    -0.364571115027E+03    0.14294E+00   -0.19319E+00  1164   0.325E+00    0.528E+00
DAV:  15    -0.364537716964E+03    0.33398E-01   -0.10236E+00  1152   0.246E+00    0.420E+00
DAV:  16    -0.364518433280E+03    0.19284E-01   -0.63604E-01  1176   0.192E+00    0.341E+00
DAV:  17    -0.364491545171E+03    0.26888E-01   -0.46193E-01  1116   0.154E+00    0.228E+00
DAV:  18    -0.364502935191E+03   -0.11390E-01   -0.34642E-01  1128   0.139E+00    0.232E+00
DAV:  19    -0.364538268601E+03   -0.35333E-01   -0.39335E-01  1164   0.147E+00    0.323E+00
DAV:  20    -0.364499101241E+03    0.39167E-01   -0.31702E-01  1152   0.133E+00    0.173E+00
DAV:  21    -0.364491735456E+03    0.73658E-02   -0.14340E-01  1164   0.856E-01    0.931E-01
DAV:  22    -0.364499080056E+03   -0.73446E-02   -0.80972E-02  1128   0.615E-01    0.128E+00
DAV:  23    -0.364490903166E+03    0.81769E-02   -0.48072E-02  1080   0.516E-01    0.515E-01
DAV:  24    -0.364491476175E+03   -0.57301E-03   -0.17234E-02   984   0.295E-01    0.420E-01
DAV:  25    -0.364491520335E+03   -0.44160E-04   -0.86167E-03   864   0.218E-01    0.348E-01
DAV:  26    -0.364491703645E+03   -0.18331E-03   -0.57375E-03   780   0.193E-01    0.382E-01
DAV:  27    -0.364491145198E+03    0.55845E-03   -0.29518E-03   768   0.144E-01    0.161E-01
DAV:  28    -0.364491361204E+03   -0.21601E-03   -0.20814E-03   756   0.102E-01    0.185E-01
DAV:  29    -0.364491459729E+03   -0.98524E-04   -0.14005E-03   720   0.928E-02    0.155E-01
DAV:  30    -0.364491421771E+03    0.37958E-04   -0.80438E-04   684   0.725E-02
  18 F= -.36449142E+03 E0= -.36445061E+03  d E =0.821709E-01
 curvature: 131.09 expect dE= 0.336E+02 dE for cont linesearch  0.540E+01
 ZBRENT: bracketing found
 ZBRENT: interpolating
 opt :   7.4191  next Energy=  -364.957678 (dE=-0.384E+00)
 bond charge predicted
       N       E                     dE             d eps       ncg     rms          rms(c)
DAV:   1    -0.359238433673E+03    0.52530E+01   -0.68210E+02   852   0.548E+01    0.159E+01
DAV:   2    -0.451133327777E+03   -0.91895E+02   -0.52560E+02  1188   0.615E+01    0.120E+02
DAV:   3    -0.366914066882E+03    0.84219E+02   -0.44992E+02  1188   0.517E+01    0.429E+01
DAV:   4    -0.363735083305E+03    0.31790E+01   -0.13778E+02  1140   0.248E+01    0.137E+01
DAV:   5    -0.367552794454E+03   -0.38177E+01   -0.42266E+01  1152   0.140E+01    0.262E+01
DAV:   6    -0.367318021415E+03    0.23477E+00   -0.24236E+01  1104   0.130E+01    0.220E+01
DAV:   7    -0.365234108797E+03    0.20839E+01   -0.16430E+01  1128   0.907E+00    0.994E+00
DAV:   8    -0.365322995498E+03   -0.88887E-01   -0.74766E+00  1116   0.595E+00    0.958E+00
DAV:   9    -0.365751360832E+03   -0.42837E+00   -0.55010E+00  1104   0.584E+00    0.129E+01
DAV:  10    -0.365354923651E+03    0.39644E+00   -0.45611E+00  1092   0.523E+00    0.947E+00
DAV:  11    -0.365052366541E+03    0.30256E+00   -0.29726E+00  1128   0.393E+00    0.577E+00
DAV:  12    -0.365027167688E+03    0.25199E-01   -0.17064E+00  1128   0.300E+00    0.492E+00
DAV:  13    -0.365051901335E+03   -0.24734E-01   -0.13639E+00  1104   0.279E+00    0.495E+00
DAV:  14    -0.365049203345E+03    0.26980E-02   -0.93090E-01  1128   0.257E+00    0.514E+00
DAV:  15    -0.364967269850E+03    0.81933E-01   -0.74948E-01  1092   0.211E+00    0.305E+00
DAV:  16    -0.364973003603E+03   -0.57338E-02   -0.48939E-01  1092   0.157E+00    0.270E+00
DAV:  17    -0.364988750304E+03   -0.15747E-01   -0.41711E-01  1140   0.138E+00    0.298E+00
DAV:  18    -0.364962987048E+03    0.25763E-01   -0.34392E-01  1140   0.126E+00    0.191E+00
DAV:  19    -0.364993740859E+03   -0.30754E-01   -0.35623E-01  1152   0.123E+00    0.273E+00
DAV:  20    -0.364978816783E+03    0.14924E-01   -0.28922E-01  1164   0.117E+00    0.198E+00
DAV:  21    -0.364962553696E+03    0.16263E-01   -0.14548E-01  1128   0.884E-01    0.953E-01
DAV:  22    -0.364964577911E+03   -0.20242E-02   -0.58821E-02  1128   0.543E-01    0.100E+00
DAV:  23    -0.364962424629E+03    0.21533E-02   -0.35594E-02  1116   0.433E-01    0.755E-01
DAV:  24    -0.364960800040E+03    0.16246E-02   -0.18797E-02   936   0.317E-01    0.490E-01
DAV:  25    -0.364961030032E+03   -0.22999E-03   -0.10927E-02   876   0.250E-01    0.482E-01
DAV:  26    -0.364961285551E+03   -0.25552E-03   -0.86186E-03   792   0.220E-01    0.516E-01
DAV:  27    -0.364960101510E+03    0.11840E-02   -0.55839E-03   744   0.186E-01    0.238E-01
DAV:  28    -0.364960200210E+03   -0.98699E-04   -0.21698E-03   756   0.104E-01    0.208E-01
DAV:  29    -0.364960162673E+03    0.37537E-04   -0.15349E-03   708   0.905E-02    0.169E-01
DAV:  30    -0.364960078892E+03    0.83781E-04   -0.86195E-04   708   0.729E-02
  19 F= -.36496008E+03 E0= -.36493287E+03  d E =-.386486E+00
 curvature:  -0.48 expect dE=-0.470E-01 dE for cont linesearch -0.408E-05
 trial: gam= 0.23438 g(F)=  0.978E-01 g(S)=  0.000E+00 ort = 0.193E-02 (trialstep = 0.267E+01)
 search vector abs. value=  0.123E+00
 bond charge predicted
       N       E                     dE             d eps       ncg     rms          rms(c)
DAV:   1    -0.364970885407E+03   -0.10723E-01   -0.24790E+01   780   0.965E+00    0.298E+00
DAV:   2    -0.367013829358E+03   -0.20429E+01   -0.12477E+01  1032   0.107E+01    0.167E+01
DAV:   3    -0.365424114030E+03    0.15897E+01   -0.85067E+00  1080   0.813E+00    0.932E+00
DAV:   4    -0.365179773930E+03    0.24434E+00   -0.31716E+00  1068   0.411E+00    0.356E+00
DAV:   5    -0.365308739161E+03   -0.12897E+00   -0.13948E+00  1140   0.264E+00    0.481E+00
DAV:   6    -0.365249263050E+03    0.59476E-01   -0.85718E-01  1152   0.234E+00    0.373E+00
DAV:   7    -0.365198720252E+03    0.50543E-01   -0.45724E-01  1152   0.172E+00    0.236E+00
DAV:   8    -0.365216315652E+03   -0.17595E-01   -0.33476E-01  1140   0.139E+00    0.263E+00
DAV:   9    -0.365240015837E+03   -0.23700E-01   -0.40189E-01  1116   0.143E+00    0.327E+00
DAV:  10    -0.365194485720E+03    0.45530E-01   -0.28969E-01  1128   0.122E+00    0.153E+00
DAV:  11    -0.365192931579E+03    0.15541E-02   -0.12565E-01  1128   0.795E-01    0.102E+00
DAV:  12    -0.365194532706E+03   -0.16011E-02   -0.79335E-02  1080   0.637E-01    0.103E+00
DAV:  13    -0.365193108579E+03    0.14241E-02   -0.49608E-02  1092   0.533E-01    0.902E-01
DAV:  14    -0.365190558356E+03    0.25502E-02   -0.25656E-02   972   0.411E-01    0.662E-01
DAV:  15    -0.365189807576E+03    0.75078E-03   -0.15856E-02   900   0.309E-01    0.402E-01
DAV:  16    -0.365190591281E+03   -0.78370E-03   -0.12330E-02   840   0.253E-01    0.457E-01
DAV:  17    -0.365189932085E+03    0.65920E-03   -0.80609E-03   792   0.208E-01    0.332E-01
DAV:  18    -0.365189548788E+03    0.38330E-03   -0.39519E-03   756   0.147E-01    0.194E-01
DAV:  19    -0.365189580032E+03   -0.31244E-04   -0.19646E-03   756   0.103E-01    0.164E-01
DAV:  20    -0.365189617999E+03   -0.37967E-04   -0.13385E-03   720   0.889E-02    0.168E-01
DAV:  21    -0.365189476059E+03    0.14194E-03   -0.93610E-04   672   0.775E-02    0.684E-02
DAV:  22    -0.365189506863E+03   -0.30804E-04   -0.40592E-04   600   0.519E-02
  20 F= -.36518951E+03 E0= -.36516902E+03  d E =-.229428E+00
 ZBRENT: can't locate minimum, use default step
 trial-energy change:   -0.229428  1 .order   -0.230525   -0.262587   -0.198463
 step:  10.6869(harm= 10.9406)  dis= 0.08838  next Energy=  -365.497725 (dE=-0.538E+00)
 bond charge predicted
       N       E                     dE             d eps       ncg     rms          rms(c)
DAV:   1    -0.363532161215E+03    0.16573E+01   -0.22428E+02   792   0.299E+01    0.887E+00
DAV:   2    -0.380498586054E+03   -0.16966E+02   -0.10801E+02  1044   0.317E+01    0.488E+01
DAV:   3    -0.366549027862E+03    0.13950E+02   -0.87144E+01  1116   0.257E+01    0.236E+01
DAV:   4    -0.365572519840E+03    0.97651E+00   -0.27870E+01  1116   0.120E+01    0.987E+00
DAV:   5    -0.366842537653E+03   -0.12700E+01   -0.13870E+01  1128   0.809E+00    0.185E+01
DAV:   6    -0.366204968397E+03    0.63757E+00   -0.13551E+01  1140   0.824E+00    0.113E+01
DAV:   7    -0.365584289213E+03    0.62068E+00   -0.53131E+00  1080   0.543E+00    0.497E+00
DAV:   8    -0.365769322343E+03   -0.18503E+00   -0.31189E+00  1140   0.400E+00    0.749E+00
DAV:   9    -0.365771536890E+03   -0.22145E-02   -0.24517E+00  1116   0.390E+00    0.729E+00
DAV:  10    -0.365632989075E+03    0.13855E+00   -0.17760E+00  1140   0.353E+00    0.560E+00
DAV:  11    -0.365553839851E+03    0.79149E-01   -0.12827E+00  1140   0.284E+00    0.381E+00
DAV:  12    -0.365558022617E+03   -0.41828E-02   -0.95401E-01  1092   0.218E+00    0.336E+00
DAV:  13    -0.365514219902E+03    0.43803E-01   -0.45199E-01  1104   0.156E+00    0.185E+00
DAV:  14    -0.365509332867E+03    0.48870E-02   -0.21571E-01  1104   0.110E+00    0.151E+00
DAV:  15    -0.365543791408E+03   -0.34459E-01   -0.19223E-01  1140   0.114E+00    0.285E+00
DAV:  16    -0.365519010088E+03    0.24781E-01   -0.18839E-01  1128   0.113E+00    0.181E+00
DAV:  17    -0.365508278715E+03    0.10731E-01   -0.11813E-01  1152   0.780E-01    0.103E+00
DAV:  18    -0.365509061091E+03   -0.78238E-03   -0.58549E-02  1140   0.550E-01    0.798E-01
DAV:  19    -0.365511654245E+03   -0.25932E-02   -0.42247E-02  1104   0.458E-01    0.915E-01
DAV:  20    -0.365508243893E+03    0.34104E-02   -0.34430E-02   912   0.422E-01    0.529E-01
DAV:  21    -0.365507716215E+03    0.52768E-03   -0.14065E-02   948   0.280E-01    0.333E-01
DAV:  22    -0.365508466500E+03   -0.75029E-03   -0.87675E-03   804   0.218E-01    0.437E-01
DAV:  23    -0.365507691376E+03    0.77512E-03   -0.60455E-03   744   0.196E-01    0.242E-01
DAV:  24    -0.365507549492E+03    0.14188E-03   -0.26160E-03   744   0.121E-01    0.147E-01
DAV:  25    -0.365507706021E+03   -0.15653E-03   -0.17564E-03   732   0.101E-01    0.184E-01
DAV:  26    -0.365507541733E+03    0.16429E-03   -0.10063E-03   660   0.786E-02    0.768E-02
DAV:  27    -0.365507558925E+03   -0.17191E-04   -0.32018E-04   576   0.488E-02
  21 F= -.36550756E+03 E0= -.36549669E+03  d E =-.547480E+00
 curvature:  -6.83 expect dE=-0.236E+00 dE for cont linesearch -0.206E-02
 trial: gam= 0.25613 g(F)=  0.346E-01 g(S)=  0.000E+00 ort = 0.609E-02 (trialstep = 0.427E+01)
 search vector abs. value=  0.457E-01
 bond charge predicted
       N       E                     dE             d eps       ncg     rms          rms(c)
DAV:   1    -0.365485238549E+03    0.22303E-01   -0.24718E+01   816   0.977E+00    0.457E+00
DAV:   2    -0.372360219710E+03   -0.68750E+01   -0.39012E+01  1044   0.166E+01    0.306E+01
DAV:   3    -0.366302617923E+03    0.60576E+01   -0.24002E+01  1080   0.130E+01    0.143E+01
DAV:   4    -0.365656046591E+03    0.64657E+00   -0.70960E+00  1128   0.606E+00    0.637E+00
DAV:   5    -0.365650799065E+03    0.52475E-02   -0.23093E+00  1104   0.355E+00    0.381E+00
DAV:   6    -0.365965980758E+03   -0.31518E+00   -0.17986E+00  1140   0.335E+00    0.834E+00
DAV:   7    -0.365700594641E+03    0.26539E+00   -0.15562E+00  1164   0.319E+00    0.472E+00
DAV:   8    -0.365634750130E+03    0.65845E-01   -0.72136E-01  1200   0.206E+00    0.251E+00
DAV:   9    -0.365673628397E+03   -0.38878E-01   -0.50987E-01  1164   0.174E+00    0.308E+00
DAV:  10    -0.365654362965E+03    0.19265E-01   -0.41418E-01  1104   0.164E+00    0.218E+00
DAV:  11    -0.365632934692E+03    0.21428E-01   -0.24819E-01  1116   0.122E+00    0.131E+00
DAV:  12    -0.365628344993E+03    0.45897E-02   -0.84556E-02  1080   0.736E-01    0.797E-01
DAV:  13    -0.365636891346E+03   -0.85464E-02   -0.59799E-02  1104   0.598E-01    0.140E+00
DAV:  14    -0.365630400659E+03    0.64907E-02   -0.49766E-02  1044   0.597E-01    0.944E-01
DAV:  15    -0.365627429202E+03    0.29715E-02   -0.30478E-02  1080   0.421E-01    0.519E-01
DAV:  16    -0.365627809635E+03   -0.38043E-03   -0.16998E-02   984   0.294E-01    0.460E-01
DAV:  17    -0.365628214624E+03   -0.40499E-03   -0.11943E-02   804   0.252E-01    0.494E-01
DAV:  18    -0.365627240543E+03    0.97408E-03   -0.84893E-03   756   0.220E-01    0.305E-01
DAV:  19    -0.365626983375E+03    0.25717E-03   -0.33667E-03   756   0.139E-01    0.164E-01
DAV:  20    -0.365627096308E+03   -0.11293E-03   -0.16265E-03   756   0.988E-02    0.194E-01
DAV:  21    -0.365626965720E+03    0.13059E-03   -0.11941E-03   708   0.891E-02    0.123E-01
DAV:  22    -0.365626913846E+03    0.51874E-04   -0.54297E-04   636   0.634E-02
  22 F= -.36562691E+03 E0= -.36562158E+03  d E =-.119355E+00
 trial-energy change:   -0.119355  1 .order   -0.119930   -0.154364   -0.085497
 step:  10.3117(harm=  9.5817)  dis= 0.06503  next Energy=  -365.685664 (dE=-0.178E+00)
 bond charge predicted
       N       E                     dE             d eps       ncg     rms          rms(c)
DAV:   1    -0.365383059996E+03    0.24391E+00   -0.49154E+01   804   0.139E+01    0.631E+00
DAV:   2    -0.377667868580E+03   -0.12285E+02   -0.70437E+01  1068   0.229E+01    0.415E+01
DAV:   3    -0.367296583752E+03    0.10371E+02   -0.48668E+01  1104   0.182E+01    0.203E+01
DAV:   4    -0.365818401129E+03    0.14782E+01   -0.15658E+01  1140   0.880E+00    0.963E+00
DAV:   5    -0.365714460395E+03    0.10394E+00   -0.49599E+00  1104   0.513E+00    0.523E+00
DAV:   6    -0.366240889425E+03   -0.52643E+00   -0.38116E+00  1128   0.463E+00    0.108E+01
DAV:   7    -0.365876490463E+03    0.36440E+00   -0.30653E+00  1140   0.442E+00    0.688E+00
DAV:   8    -0.365720924397E+03    0.15557E+00   -0.15492E+00  1176   0.306E+00    0.413E+00
DAV:   9    -0.365750495029E+03   -0.29571E-01   -0.97245E-01  1152   0.253E+00    0.405E+00
DAV:  10    -0.365759319444E+03   -0.88244E-02   -0.96534E-01  1116   0.242E+00    0.372E+00
DAV:  11    -0.365705547810E+03    0.53772E-01   -0.64797E-01  1140   0.195E+00    0.257E+00
DAV:  12    -0.365677557176E+03    0.27991E-01   -0.22986E-01  1140   0.122E+00    0.114E+00
DAV:  13    -0.365691743487E+03   -0.14186E-01   -0.14165E-01  1140   0.843E-01    0.168E+00
DAV:  14    -0.365696269569E+03   -0.45261E-02   -0.11453E-01  1164   0.892E-01    0.192E+00
DAV:  15    -0.365677953420E+03    0.18316E-01   -0.85949E-02  1104   0.736E-01    0.731E-01
DAV:  16    -0.365679644302E+03   -0.16909E-02   -0.42127E-02  1116   0.451E-01    0.618E-01
DAV:  17    -0.365681278614E+03   -0.16343E-02   -0.27464E-02   984   0.374E-01    0.729E-01
DAV:  18    -0.365679295876E+03    0.19827E-02   -0.18181E-02   840   0.335E-01    0.478E-01
DAV:  19    -0.365678467964E+03    0.82791E-03   -0.78399E-03   852   0.212E-01    0.226E-01
DAV:  20    -0.365678699228E+03   -0.23126E-03   -0.36970E-03   756   0.145E-01    0.253E-01
DAV:  21    -0.365678546352E+03    0.15288E-03   -0.26249E-03   744   0.130E-01    0.198E-01
DAV:  22    -0.365678390621E+03    0.15573E-03   -0.12628E-03   732   0.915E-02    0.911E-02
DAV:  23    -0.365678530904E+03   -0.14028E-03   -0.12570E-03   732   0.828E-02    0.168E-01
DAV:  24    -0.365678410592E+03    0.12031E-03   -0.90759E-04   684   0.754E-02    0.745E-02
DAV:  25    -0.365678395248E+03    0.15343E-04   -0.26920E-04   540   0.483E-02
  23 F= -.36567840E+03 E0= -.36567880E+03  d E =-.170836E+00
 curvature:  -5.95 expect dE=-0.152E+00 dE for cont linesearch -0.703E-03
 trial: gam= 0.88272 g(F)=  0.255E-01 g(S)=  0.000E+00 ort =-0.232E-02 (trialstep = 0.440E+01)
 search vector abs. value=  0.570E-01
 bond charge predicted
       N       E                     dE             d eps       ncg     rms          rms(c)
DAV:   1    -0.365565526406E+03    0.11288E+00   -0.31053E+01   792   0.108E+01    0.441E+00
DAV:   2    -0.374811349271E+03   -0.92458E+01   -0.42228E+01  1092   0.164E+01    0.502E+01
DAV:   3    -0.365956384034E+03    0.88550E+01   -0.61419E+01  1116   0.170E+01    0.120E+01
DAV:   4    -0.365682252208E+03    0.27413E+00   -0.98412E+00  1140   0.630E+00    0.510E+00
DAV:   5    -0.365845776826E+03   -0.16352E+00   -0.22233E+00  1116   0.362E+00    0.505E+00
DAV:   6    -0.365964636359E+03   -0.11886E+00   -0.15474E+00  1140   0.293E+00    0.625E+00
DAV:   7    -0.365760984012E+03    0.20365E+00   -0.10680E+00  1140   0.248E+00    0.224E+00
DAV:   8    -0.365772836208E+03   -0.11852E-01   -0.42479E-01  1152   0.137E+00    0.177E+00
DAV:   9    -0.365791447593E+03   -0.18611E-01   -0.32565E-01  1092   0.126E+00    0.231E+00
DAV:  10    -0.365788776568E+03    0.26710E-02   -0.25103E-01  1140   0.127E+00    0.246E+00
DAV:  11    -0.365764443206E+03    0.24333E-01   -0.16113E-01  1128   0.103E+00    0.119E+00
DAV:  12    -0.365769505363E+03   -0.50622E-02   -0.98410E-02  1152   0.729E-01    0.118E+00
DAV:  13    -0.365767790107E+03    0.17153E-02   -0.58626E-02  1152   0.602E-01    0.985E-01
DAV:  14    -0.365764303566E+03    0.34865E-02   -0.35490E-02  1044   0.469E-01    0.616E-01
DAV:  15    -0.365767729237E+03   -0.34257E-02   -0.28054E-02  1020   0.419E-01    0.918E-01
DAV:  16    -0.365766400104E+03    0.13291E-02   -0.24409E-02   912   0.400E-01    0.681E-01
DAV:  17    -0.365764862281E+03    0.15378E-02   -0.14253E-02   804   0.296E-01    0.446E-01
DAV:  18    -0.365764712823E+03    0.14946E-03   -0.86053E-03   804   0.219E-01    0.342E-01
DAV:  19    -0.365765109060E+03   -0.39624E-03   -0.71050E-03   780   0.192E-01    0.367E-01
DAV:  20    -0.365764408448E+03    0.70061E-03   -0.45979E-03   720   0.161E-01    0.141E-01
DAV:  21    -0.365764455714E+03   -0.47265E-04   -0.17178E-03   756   0.101E-01    0.140E-01
DAV:  22    -0.365764522396E+03   -0.66682E-04   -0.11231E-03   696   0.857E-02    0.168E-01
DAV:  23    -0.365764382597E+03    0.13980E-03   -0.61366E-04   624   0.690E-02    0.605E-02
DAV:  24    -0.365764381474E+03    0.11237E-05   -0.15055E-04   492   0.388E-02
  24 F= -.36576438E+03 E0= -.36576536E+03  d E =-.859862E-01
 ZBRENT: can't locate minimum, use default step
 trial-energy change:   -0.085986  1 .order   -0.086418   -0.103045   -0.069792
 step:  17.5866(harm= 13.6246)  dis= 0.06973  next Energy=  -365.859172 (dE=-0.181E+00)
 bond charge predicted
       N       E                     dE             d eps       ncg     rms          rms(c)
DAV:   1    -0.363991472426E+03    0.17729E+01   -0.28080E+02   816   0.339E+01    0.134E+01
DAV:   2    -0.430029658012E+03   -0.66038E+02   -0.36775E+02  1164   0.494E+01    0.107E+02
DAV:   3    -0.369272772244E+03    0.60757E+02   -0.39319E+02  1188   0.508E+01    0.374E+01
DAV:   4    -0.365751987281E+03    0.35208E+01   -0.96645E+01  1116   0.196E+01    0.164E+01
DAV:   5    -0.366336713914E+03   -0.58473E+00   -0.22963E+01  1128   0.105E+01    0.131E+01
DAV:   6    -0.367755099802E+03   -0.14184E+01   -0.12171E+01  1140   0.903E+00    0.211E+01
DAV:   7    -0.365936329057E+03    0.18188E+01   -0.12200E+01  1116   0.820E+00    0.699E+00
DAV:   8    -0.365997305186E+03   -0.60976E-01   -0.49808E+00  1152   0.464E+00    0.677E+00
DAV:   9    -0.366298089399E+03   -0.30078E+00   -0.47588E+00  1128   0.484E+00    0.937E+00
DAV:  10    -0.366111595288E+03    0.18649E+00   -0.29808E+00  1116   0.459E+00    0.839E+00
DAV:  11    -0.365828296682E+03    0.28330E+00   -0.19898E+00  1140   0.350E+00    0.396E+00
DAV:  12    -0.365842587698E+03   -0.14291E-01   -0.95781E-01  1116   0.230E+00    0.331E+00
DAV:  13    -0.365893521175E+03   -0.50933E-01   -0.74391E-01  1152   0.212E+00    0.419E+00
DAV:  14    -0.365854308312E+03    0.39213E-01   -0.56711E-01  1140   0.195E+00    0.363E+00
DAV:  15    -0.365804075473E+03    0.50233E-01   -0.33118E-01  1116   0.145E+00    0.145E+00
DAV:  16    -0.365826496829E+03   -0.22421E-01   -0.22473E-01  1128   0.106E+00    0.196E+00
DAV:  17    -0.365816950075E+03    0.95468E-02   -0.16218E-01  1116   0.970E-01    0.143E+00
DAV:  18    -0.365814713529E+03    0.22365E-02   -0.92689E-02  1152   0.758E-01    0.117E+00
DAV:  19    -0.365816370981E+03   -0.16575E-02   -0.78395E-02  1104   0.643E-01    0.104E+00
DAV:  20    -0.365812012726E+03    0.43583E-02   -0.50444E-02  1104   0.504E-01    0.596E-01
DAV:  21    -0.365812167889E+03   -0.15516E-03   -0.22654E-02  1032   0.334E-01    0.519E-01
DAV:  22    -0.365812336847E+03   -0.16896E-03   -0.12043E-02   852   0.259E-01    0.520E-01
DAV:  23    -0.365811196940E+03    0.11399E-02   -0.72019E-03   780   0.214E-01    0.287E-01
DAV:  24    -0.365811456293E+03   -0.25935E-03   -0.49525E-03   744   0.164E-01    0.295E-01
DAV:  25    -0.365811251550E+03    0.20474E-03   -0.31985E-03   732   0.136E-01    0.205E-01
DAV:  26    -0.365811082667E+03    0.16888E-03   -0.15403E-03   720   0.951E-02    0.103E-01
DAV:  27    -0.365811151689E+03   -0.69022E-04   -0.91289E-04   732   0.729E-02
  25 F= -.36581115E+03 E0= -.36580804E+03  d E =-.132756E+00
 curvature: -13.52 expect dE=-0.462E+00 dE for cont linesearch -0.179E-01
 ZBRENT: interpolating
 opt :  12.9165  next Energy=  -365.831470 (dE=-0.153E+00)
 bond charge predicted
       N       E                     dE             d eps       ncg     rms          rms(c)
DAV:   1    -0.365617232760E+03    0.19385E+00   -0.35182E+01   792   0.116E+01    0.501E+00
DAV:   2    -0.374923756203E+03   -0.93065E+01   -0.52559E+01  1128   0.188E+01    0.383E+01
DAV:   3    -0.366547234827E+03    0.83765E+01   -0.42452E+01  1092   0.157E+01    0.140E+01
DAV:   4    -0.365702930432E+03    0.84430E+00   -0.99875E+00  1128   0.650E+00    0.384E+00
DAV:   5    -0.365991582386E+03   -0.28865E+00   -0.25650E+00  1140   0.362E+00    0.648E+00
DAV:   6    -0.366078498330E+03   -0.86916E-01   -0.17878E+00  1128   0.331E+00    0.734E+00
DAV:   7    -0.365807911014E+03    0.27059E+00   -0.98587E-01  1152   0.257E+00    0.188E+00
DAV:   8    -0.365856209850E+03   -0.48299E-01   -0.47115E-01  1176   0.148E+00    0.257E+00
DAV:   9    -0.365883840930E+03   -0.27631E-01   -0.37495E-01  1140   0.160E+00    0.335E+00
DAV:  10    -0.365849347743E+03    0.34493E-01   -0.31035E-01  1092   0.140E+00    0.206E+00
DAV:  11    -0.365835197819E+03    0.14150E-01   -0.20815E-01  1140   0.104E+00    0.115E+00
DAV:  12    -0.365839687369E+03   -0.44895E-02   -0.10527E-01  1128   0.769E-01    0.128E+00
DAV:  13    -0.365840189377E+03   -0.50201E-03   -0.79127E-02  1128   0.674E-01    0.121E+00
DAV:  14    -0.365832338111E+03    0.78513E-02   -0.48694E-02  1092   0.521E-01    0.478E-01
DAV:  15    -0.365835817632E+03   -0.34795E-02   -0.24706E-02  1032   0.369E-01    0.773E-01
DAV:  16    -0.365836204775E+03   -0.38714E-03   -0.23462E-02   852   0.394E-01    0.806E-01
DAV:  17    -0.365833207415E+03    0.29974E-02   -0.15122E-02   828   0.322E-01    0.360E-01
DAV:  18    -0.365833082764E+03    0.12465E-03   -0.70844E-03   768   0.202E-01    0.226E-01
DAV:  19    -0.365833331310E+03   -0.24855E-03   -0.46429E-03   780   0.160E-01    0.267E-01
DAV:  20    -0.365832999908E+03    0.33140E-03   -0.28764E-03   732   0.129E-01    0.153E-01
DAV:  21    -0.365832923993E+03    0.75914E-04   -0.10642E-03   720   0.844E-02    0.910E-02
DAV:  22    -0.365832947089E+03   -0.23096E-04   -0.59416E-04   636   0.652E-02
  26 F= -.36583295E+03 E0= -.36583267E+03  d E =-.154552E+00
 curvature: -15.30 expect dE=-0.313E+00 dE for cont linesearch -0.176E-04
 trial: gam= 0.53033 g(F)=  0.205E-01 g(S)=  0.000E+00 ort =-0.256E-03 (trialstep = 0.610E+01)
 search vector abs. value=  0.362E-01
 bond charge predicted
       N       E                     dE             d eps       ncg     rms          rms(c)
DAV:   1    -0.365662321910E+03    0.17060E+00   -0.39003E+01   792   0.121E+01    0.493E+00
DAV:   2    -0.374842877304E+03   -0.91806E+01   -0.45478E+01  1056   0.177E+01    0.452E+01
DAV:   3    -0.366277542828E+03    0.85653E+01   -0.54256E+01  1080   0.173E+01    0.141E+01
DAV:   4    -0.365962665085E+03    0.31488E+00   -0.10804E+01  1152   0.688E+00    0.694E+00
DAV:   5    -0.365991616086E+03   -0.28951E-01   -0.27951E+00  1116   0.405E+00    0.502E+00
DAV:   6    -0.366187163573E+03   -0.19555E+00   -0.23444E+00  1116   0.333E+00    0.691E+00
DAV:   7    -0.365926294525E+03    0.26087E+00   -0.15375E+00  1104   0.291E+00    0.279E+00
DAV:   8    -0.365963837246E+03   -0.37543E-01   -0.70767E-01  1152   0.189E+00    0.311E+00
DAV:   9    -0.365999455680E+03   -0.35618E-01   -0.67334E-01  1140   0.183E+00    0.362E+00
DAV:  10    -0.365944492746E+03    0.54963E-01   -0.43303E-01  1128   0.170E+00    0.241E+00
DAV:  11    -0.365927855797E+03    0.16637E-01   -0.20168E-01  1140   0.110E+00    0.128E+00
[...]
 curvature:  -3.13 expect dE=-0.223E-03 dE for cont linesearch -0.319E-05
 trial: gam= 1.24582 g(F)=  0.712E-04 g(S)=  0.000E+00 ort = 0.734E-05 (trialstep = 0.278E+00)
 search vector abs. value=  0.172E-03
 bond charge predicted
       N       E                     dE             d eps       ncg     rms          rms(c)
DAV:   1    -0.367299324584E+03    0.10278E-03   -0.66147E-04   732   0.710E-02    0.505E-02
DAV:   2    -0.367300701260E+03   -0.13767E-02   -0.64035E-03   744   0.187E-01    0.496E-01
DAV:   3    -0.367299401616E+03    0.12996E-02   -0.43952E-03   744   0.182E-01    0.183E-01
DAV:   4    -0.367299322872E+03    0.78743E-04   -0.11623E-03   732   0.808E-02    0.507E-02
DAV:   5    -0.367299315931E+03    0.69417E-05   -0.16696E-04   516   0.394E-02
 156 F= -.36729932E+03 E0= -.36729155E+03  d E =0.821420E-04
 trial-energy change:    0.000082  1 .order   -0.000009   -0.000022    0.000004
 step:   0.2350(harm=  0.2350)  dis= 0.00007  next Energy=  -367.299408 (dE=-0.944E-05)
 bond charge predicted
       N       E                     dE             d eps       ncg     rms          rms(c)
DAV:   1    -0.367299319239E+03    0.36332E-05   -0.66575E-05   360   0.274E-02    0.310E-02
DAV:   2    -0.367300078401E+03   -0.75916E-03   -0.20982E-03   708   0.126E-01    0.376E-01
DAV:   3    -0.367299292296E+03    0.78611E-03   -0.17615E-03   660   0.125E-01    0.790E-02
DAV:   4    -0.367299312141E+03   -0.19845E-04   -0.27691E-04   552   0.387E-02
 157 F= -.36729931E+03 E0= -.36729153E+03  d E =0.859318E-04
 curvature:  -0.25 expect dE=-0.372E-05 dE for cont linesearch -0.171E-05
 ZBRENT: interpolating
 opt :   0.2648  next Energy=  -367.299316 (dE= 0.820E-04)
 bond charge predicted
       N       E                     dE             d eps       ncg     rms          rms(c)
DAV:   1    -0.367299315237E+03   -0.22941E-04   -0.82403E-05   396   0.259E-02    0.206E-02
DAV:   2    -0.367299583642E+03   -0.26841E-03   -0.95426E-04   684   0.776E-02    0.224E-01
DAV:   3    -0.367299311238E+03    0.27240E-03   -0.68367E-04   576   0.743E-02    0.417E-02
DAV:   4    -0.367299315138E+03   -0.38997E-05   -0.86184E-05   444   0.249E-02
 158 F= -.36729932E+03 E0= -.36729155E+03  d E =0.829347E-04
 curvature:  -0.01 expect dE=-0.157E-06 dE for cont linesearch -0.191E-10
 trial: gam= 0.22061 g(F)=  0.115E-04 g(S)=  0.000E+00 ort =-0.491E-06 (trialstep = 0.275E+00)
 search vector abs. value=  0.197E-04
 bond charge predicted
       N       E                     dE             d eps       ncg     rms          rms(c)
DAV:   1    -0.367299317876E+03   -0.66379E-05   -0.83618E-05   324   0.265E-02    0.158E-02
DAV:   2    -0.367299462814E+03   -0.14494E-03   -0.61244E-04   648   0.638E-02    0.161E-01
DAV:   3    -0.367299317802E+03    0.14501E-03   -0.32503E-04   516   0.562E-02    0.260E-02
DAV:   4    -0.367299320384E+03   -0.25822E-05   -0.66758E-05   360   0.216E-02
 159 F= -.36729932E+03 E0= -.36729156E+03  d E =-.524641E-05
 trial-energy change:   -0.000005  1 .order   -0.000002   -0.000003   -0.000001
 step:   0.3676(harm=  0.3676)  dis= 0.00005  next Energy=  -367.299317 (dE=-0.210E-05)
 bond charge predicted
       N       E                     dE             d eps       ncg     rms          rms(c)
DAV:   1    -0.367299322609E+03   -0.48067E-05   -0.53537E-05   324   0.221E-02    0.199E-02
DAV:   2    -0.367299708865E+03   -0.38626E-03   -0.12643E-03   660   0.859E-02    0.275E-01
DAV:   3    -0.367299305148E+03    0.40372E-03   -0.91967E-04   612   0.836E-02    0.482E-02
DAV:   4    -0.367299320731E+03   -0.15583E-04   -0.75330E-05   456   0.250E-02
 160 F= -.36729932E+03 E0= -.36729153E+03  d E =-.559293E-05
 curvature:  -0.32 expect dE=-0.120E-05 dE for cont linesearch -0.454E-06
 ZBRENT: increasing intervall
 opt :   0.5529  next Energy=  -367.299322 (dE=-0.703E-05)
 bond charge predicted
       N       E                     dE             d eps       ncg     rms          rms(c)
DAV:   1    -0.367299323761E+03   -0.18613E-04   -0.60480E-05   324   0.213E-02    0.194E-02
DAV:   2    -0.367299586951E+03   -0.26319E-03   -0.10638E-03   660   0.793E-02    0.223E-01
DAV:   3    -0.367299319594E+03    0.26736E-03   -0.69574E-04   600   0.734E-02    0.340E-02
DAV:   4    -0.367299325596E+03   -0.60015E-05   -0.74482E-05   444   0.237E-02
 161 F= -.36729933E+03 E0= -.36729153E+03  d E =-.104579E-04
 curvature:  -1.00 expect dE=-0.576E-05 dE for cont linesearch -0.412E-06
 ZBRENT: increasing intervall
 opt :   0.9235  next Energy=  -367.299326 (dE=-0.106E-04)
 bond charge predicted
       N       E                     dE             d eps       ncg     rms          rms(c)
DAV:   1    -0.367299325071E+03   -0.54764E-05   -0.10868E-04   324   0.282E-02    0.174E-02
DAV:   2    -0.367299517799E+03   -0.19273E-03   -0.75035E-04   648   0.752E-02    0.188E-01
DAV:   3    -0.367299324163E+03    0.19364E-03   -0.47113E-04   552   0.638E-02    0.314E-02
DAV:   4    -0.367299328165E+03   -0.40020E-05   -0.62223E-05   360   0.241E-02
 162 F= -.36729933E+03 E0= -.36729153E+03  d E =-.130268E-04
 curvature:  -0.34 expect dE=-0.132E-05 dE for cont linesearch -0.195E-07
 ZBRENT: bracketing found
 ZBRENT: interpolating
 opt :   0.8228  next Energy=  -367.299328 (dE=-0.131E-04)
 bond charge predicted
       N       E                     dE             d eps       ncg     rms          rms(c)
DAV:   1    -0.367299329182E+03   -0.50189E-05   -0.42841E-05   324   0.199E-02    0.170E-02
DAV:   2    -0.367299554524E+03   -0.22534E-03   -0.81974E-04   648   0.674E-02    0.207E-01
DAV:   3    -0.367299322166E+03    0.23236E-03   -0.53916E-04   576   0.666E-02    0.398E-02
DAV:   4    -0.367299327496E+03   -0.53299E-05   -0.53675E-05   444   0.214E-02
 163 F= -.36729933E+03 E0= -.36729153E+03  d E =-.123580E-04
 curvature:  -0.93 expect dE=-0.922E-05 dE for cont linesearch -0.498E-05
 ZBRENT: interpolating
 opt :   0.9140  next Energy=  -367.299328 (dE=-0.130E-04)
 bond charge predicted
       N       E                     dE             d eps       ncg     rms          rms(c)
DAV:   1    -0.367299329979E+03   -0.78134E-05   -0.43675E-05   324   0.177E-02    0.201E-02
DAV:   2    -0.367299640780E+03   -0.31080E-03   -0.11748E-03   660   0.805E-02    0.243E-01
DAV:   3    -0.367299313818E+03    0.32696E-03   -0.81654E-04   612   0.790E-02    0.296E-02
DAV:   4    -0.367299329973E+03   -0.16155E-04   -0.68949E-05   444   0.222E-02
 164 F= -.36729933E+03 E0= -.36729153E+03  d E =-.148354E-04
 curvature:  -0.00 expect dE=-0.707E-08 dE for cont linesearch -0.232E-08
 ZBRENT: interpolating
 opt :   0.9222  next Energy=  -367.299328 (dE=-0.130E-04)
 bond charge predicted
       N       E                     dE             d eps       ncg     rms          rms(c)
DAV:   1    -0.367299330196E+03   -0.16378E-04   -0.36806E-05   324   0.170E-02    0.159E-02
DAV:   2    -0.367299539231E+03   -0.20904E-03   -0.77878E-04   648   0.643E-02    0.200E-01
DAV:   3    -0.367299323283E+03    0.21595E-03   -0.52167E-04   576   0.640E-02    0.360E-02
DAV:   4    -0.367299328923E+03   -0.56396E-05   -0.50022E-05   384   0.200E-02
 165 F= -.36729933E+03 E0= -.36729154E+03  d E =-.137848E-04
 curvature:  -0.00 expect dE=-0.199E-08 dE for cont linesearch -0.772E-09
 ZBRENT: interpolating
 opt :   0.9233  next Energy=  -367.299328 (dE=-0.130E-04)
 bond charge predicted
       N       E                     dE             d eps       ncg     rms          rms(c)
DAV:   1    -0.367299330130E+03   -0.68466E-05   -0.34471E-05   324   0.145E-02    0.154E-02
DAV:   2    -0.367299536275E+03   -0.20615E-03   -0.80363E-04   648   0.632E-02    0.199E-01
DAV:   3    -0.367299320993E+03    0.21528E-03   -0.50620E-04   588   0.626E-02    0.233E-02
DAV:   4    -0.367299331789E+03   -0.10797E-04   -0.41779E-05   360   0.168E-02
 166 F= -.36729933E+03 E0= -.36729156E+03  d E =-.166515E-04
 curvature:  -0.00 expect dE=-0.304E-09 dE for cont linesearch -0.159E-09
 ZBRENT: interpolating
 opt :   0.9235  next Energy=  -367.299328 (dE=-0.130E-04)
 bond charge predicted
       N       E                     dE             d eps       ncg     rms          rms(c)
DAV:   1    -0.367299330757E+03   -0.97648E-05   -0.25817E-05   324   0.139E-02    0.124E-02
DAV:   2    -0.367299462546E+03   -0.13179E-03   -0.54045E-04   624   0.499E-02    0.158E-01
DAV:   3    -0.367299326728E+03    0.13582E-03   -0.29295E-04   516   0.518E-02    0.268E-02
DAV:   4    -0.367299329644E+03   -0.29161E-05   -0.42970E-05   324   0.149E-02
 167 F= -.36729933E+03 E0= -.36729156E+03  d E =-.145059E-04
 curvature:  -0.00 expect dE=-0.127E-10 dE for cont linesearch -0.616E-11
 ZBRENT: interpolating
 opt :   0.9235  next Energy=  -367.299328 (dE=-0.130E-04)
 bond charge predicted
       N       E                     dE             d eps       ncg     rms          rms(c)
DAV:   1    -0.367299330613E+03   -0.38851E-05   -0.28349E-05   324   0.128E-02    0.163E-02
DAV:   2    -0.367299567021E+03   -0.23641E-03   -0.89125E-04   624   0.656E-02    0.214E-01
DAV:   3    -0.367299320433E+03    0.24659E-03   -0.56193E-04   588   0.673E-02    0.292E-02
DAV:   4    -0.367299330727E+03   -0.10294E-04   -0.37413E-05   348   0.171E-02
 168 F= -.36729933E+03 E0= -.36729155E+03  d E =-.155887E-04
 curvature:  -0.00 expect dE=-0.172E-11 dE for cont linesearch -0.104E-11
 ZBRENT: interpolating
 opt :   0.9235  next Energy=  -367.299328 (dE=-0.130E-04)
 bond charge predicted
       N       E                     dE             d eps       ncg     rms          rms(c)
DAV:   1    -0.367299330607E+03   -0.10174E-04   -0.21506E-05   324   0.114E-02    0.113E-02
DAV:   2    -0.367299434728E+03   -0.10412E-03   -0.46257E-04   612   0.434E-02    0.140E-01
DAV:   3    -0.367299326493E+03    0.10824E-03   -0.20471E-04   492   0.459E-02    0.257E-02
DAV:   4    -0.367299330878E+03   -0.43845E-05   -0.72173E-05   348   0.136E-02
 169 F= -.36729933E+03 E0= -.36729154E+03  d E =-.157398E-04
 curvature:  -0.00 expect dE=-0.964E-13 dE for cont linesearch -0.512E-13
 ZBRENT: interpolating
 opt :   0.9235  next Energy=  -367.299328 (dE=-0.130E-04)
 bond charge predicted
       N       E                     dE             d eps       ncg     rms          rms(c)
DAV:   1    -0.367299331842E+03   -0.53489E-05   -0.20891E-05   324   0.104E-02    0.132E-02
DAV:   2    -0.367299515141E+03   -0.18330E-03   -0.57760E-04   600   0.572E-02    0.187E-01
DAV:   3    -0.367299321909E+03    0.19323E-03   -0.32787E-04   492   0.598E-02    0.355E-02
DAV:   4    -0.367299329798E+03   -0.78891E-05   -0.75605E-05   348   0.162E-02
 170 F= -.36729933E+03 E0= -.36729154E+03  d E =-.146603E-04
 curvature:  -0.00 expect dE=-0.121E-13 dE for cont linesearch -0.782E-14
 ZBRENT:  accuracy reached
 opt : ********  next Energy=     0.000000 (dE= 0.367E+03)
 bond charge predicted
       N       E                     dE             d eps       ncg     rms          rms(c)
DAV:   1     0.635946470205E+04    0.67268E+04   -0.17139E+05  1212   0.633E+02    0.625E+02
DAV:   2     0.179993385887E+02   -0.63415E+04   -0.12092E+05  1224   0.133E+03    0.443E+02
DAV:   3     0.158362776419E+04    0.15656E+04   -0.44978E+04  1188   0.740E+02    0.300E+02
DAV:   4     0.856253337475E+03   -0.72737E+03   -0.24465E+04  1140   0.597E+02    0.247E+02
DAV:   5     0.553349018360E+03   -0.30290E+03   -0.10248E+04  1020   0.362E+02    0.224E+02
DAV:   6     0.424392350801E+03   -0.12896E+03   -0.31070E+03  1176   0.156E+02    0.228E+02
DAV:   7     0.415230024533E+03   -0.91623E+01   -0.70375E+02  1248   0.657E+01    0.230E+02
DAV:   8     0.360184057545E+03   -0.55046E+02   -0.22549E+02  1284   0.289E+01    0.241E+02
DAV:   9     0.309399808419E+03   -0.50784E+02   -0.49411E+02  1176   0.391E+01    0.238E+02
DAV:  10     0.272488602021E+03   -0.36911E+02   -0.15878E+02  1116   0.300E+01    0.238E+02
DAV:  11     0.273241665356E+03    0.75306E+00   -0.48348E+01  1236   0.106E+01    0.241E+02
DAV:  12     0.342858088782E+03    0.69616E+02   -0.16317E+02  1116   0.226E+01    0.235E+02
DAV:  13     0.361752150706E+03    0.18894E+02   -0.32472E+02  1164   0.288E+01    0.235E+02
DAV:  14     0.365303345192E+03    0.35512E+01   -0.17122E+01  1128   0.769E+00    0.234E+02
DAV:  15     0.290451340806E+03   -0.74852E+02   -0.54283E+01  1152   0.203E+01    0.241E+02
DAV:  16     0.197144019779E+03   -0.93307E+02   -0.48440E+02  1188   0.360E+01    0.252E+02
DAV:  17     0.205088211361E+03    0.79442E+01   -0.30491E+02  1140   0.338E+01    0.252E+02
DAV:  18     0.201150753065E+03   -0.39375E+01   -0.57658E+02  1080   0.343E+01    0.244E+02
DAV:  19     0.178128123445E+03   -0.23023E+02   -0.26953E+02  1212   0.352E+01    0.240E+02
DAV:  20     0.866178325382E+02   -0.91510E+02   -0.28597E+02  1080   0.410E+01    0.241E+02
DAV:  21     0.470420794327E+02   -0.39576E+02   -0.12383E+02  1164   0.207E+01    0.248E+02
DAV:  22     0.184856493634E+02   -0.28556E+02   -0.39875E+02  1164   0.374E+01    0.251E+02
DAV:  23    -0.164594034552E+03   -0.18308E+03   -0.14948E+02  1044   0.555E+01    0.255E+02
DAV:  24    -0.431746426701E+03   -0.26715E+03   -0.41928E+02  1128   0.452E+01    0.266E+02
DAV:  25    -0.645471692551E+03   -0.21373E+03   -0.38811E+02  1116   0.524E+01    0.279E+02
DAV:  26    -0.104165502258E+04   -0.39618E+03   -0.77510E+02  1128   0.539E+01    0.310E+02
DAV:  27    -0.107083604061E+04   -0.29181E+02   -0.32300E+02  1272   0.323E+01    0.322E+02
DAV:  28    -0.104556932851E+04    0.25267E+02   -0.10779E+02  1248   0.166E+01    0.326E+02
DAV:  29    -0.116038957015E+04   -0.11482E+03   -0.16411E+02  1164   0.184E+01    0.351E+02
DAV:  30    -0.117120989013E+04   -0.10820E+02   -0.10134E+02  1284   0.152E+01    0.356E+02
DAV:  31    -0.124573637022E+04   -0.74526E+02   -0.98511E+01  1200   0.108E+01    0.367E+02
DAV:  32    -0.117837568074E+04    0.67361E+02   -0.94511E+01  1200   0.148E+01    0.368E+02
DAV:  33    -0.121747219218E+04   -0.39097E+02   -0.50172E+01  1044   0.128E+01    0.370E+02
DAV:  34    -0.117426673389E+04    0.43205E+02   -0.30174E+02  1092   0.192E+01    0.367E+02
DAV:  35    -0.136157687084E+04   -0.18731E+03   -0.92827E+01  1044   0.243E+01    0.385E+02
DAV:  36    -0.136338911972E+04   -0.18122E+01   -0.32527E+01  1248   0.118E+01    0.387E+02
DAV:  37    -0.137990106573E+04   -0.16512E+02   -0.37507E+01  1284   0.652E+00    0.390E+02
DAV:  38    -0.138604120552E+04   -0.61401E+01   -0.19204E+01  1224   0.613E+00    0.391E+02
DAV:  39    -0.142543867611E+04   -0.39397E+02   -0.37088E+01  1068   0.794E+00    0.400E+02
DAV:  40    -0.248079565976E+04   -0.10554E+04   -0.70572E+02  1056   0.385E+01    0.472E+02
DAV:  41    -0.207703945015E+04    0.40376E+03   -0.24852E+04   732   0.258E+02    0.766E+02
DAV:  42    -0.216161000410E+04   -0.84571E+02   -0.30399E+02  1116   0.325E+01    0.603E+02
DAV:  43    -0.541155191183E+04   -0.32499E+04   -0.12481E+04  1140   0.882E+01    0.102E+03
DAV:  44    -0.284260405819E+04    0.25689E+04   -0.16072E+03  1236   0.512E+01    0.768E+02
DAV:  45    -0.290296705793E+04   -0.60363E+02   -0.25742E+02  1272   0.296E+01    0.821E+02
DAV:  46    -0.304217087190E+04   -0.13920E+03   -0.79782E+01  1284   0.185E+01    0.940E+02
DAV:  47    -0.160072220959E+05   -0.12965E+05   -0.15432E+04  1032   0.356E+02    0.298E+03
DAV:  48    -0.721862259861E+04    0.87886E+04   -0.14339E+04  1212   0.199E+02    0.188E+03
DAV:  49    -0.526394444348E+04    0.19547E+04   -0.17099E+03  1152   0.118E+02    0.197E+03
DAV:  50    -0.536854164368E+04   -0.10460E+03   -0.68881E+02  1284   0.570E+01    0.226E+03
DAV:  51    -0.652630433176E+04   -0.11578E+04   -0.54396E+02  1236   0.543E+01    0.249E+03
DAV:  52    -0.489848148196E+03    0.60365E+04   -0.29986E+05   672   0.273E+03    0.821E+02
DAV:  53    -0.475273621720E+02    0.44232E+03   -0.63916E+03  1104   0.186E+02    0.264E+02
DAV:  54    -0.737570406231E+02   -0.26230E+02   -0.37839E+03  1164   0.168E+02    0.245E+02
DAV:  55    -0.101345359391E+04   -0.93970E+03   -0.65266E+03  1032   0.124E+02    0.255E+02
DAV:  56     0.823296518081E+02    0.10958E+04   -0.14528E+03  1020   0.104E+02    0.214E+02
DAV:  57     0.434902388300E+02   -0.38839E+02   -0.92367E+03  1164   0.171E+02    0.230E+02
DAV:  58    -0.121913770253E+04   -0.12626E+04   -0.12335E+04  1200   0.157E+02    0.277E+02
DAV:  59     0.357856201518E+03    0.15770E+04   -0.96848E+03  1068   0.192E+02    0.193E+02
DAV:  60     0.379560400417E+03    0.21704E+02   -0.14791E+03  1152   0.100E+02
 -----------------------------------------------------------------------------
|                                                                             |
|           W    W    AA    RRRRR   N    N  II  N    N   GGGG   !!!           |
|           W    W   A  A   R    R  NN   N  II  NN   N  G    G  !!!           |
|           W    W  A    A  R    R  N N  N  II  N N  N  G       !!!           |
|           W WW W  AAAAAA  RRRRR   N  N N  II  N  N N  G  GGG   !            |
|           WW  WW  A    A  R   R   N   NN  II  N   NN  G    G                |
|           W    W  A    A  R    R  N    N  II  N    N   GGGG   !!!           |
|                                                                             |
|     The electronic self-consistency was not achieved in the given           |
|     number of steps (NELM). The forces and other quantities evaluated       |
|     might not be reliable so examine the results carefully. If you find     |
|     spurious results, we suggest increasing NELM, if you were close to      |
|     convergence or switching to a different ALGO or adjusting the           |
|     density mixing parameters otherwise.                                    |
|                                                                             |
 -----------------------------------------------------------------------------

 171 F= 0.37956040E+03 E0= 0.37958550E+03  d E =0.746860E+03
 curvature:   0.00 expect dE= 0.000E+00 dE for cont linesearch  0.000E+00
 -----------------------------------------------------------------------------
|                                                                             |
|     EEEEEEE  RRRRRR   RRRRRR   OOOOOOO  RRRRRR      ###     ###     ###     |
|     E        R     R  R     R  O     O  R     R     ###     ###     ###     |
|     E        R     R  R     R  O     O  R     R     ###     ###     ###     |
|     EEEEE    RRRRRR   RRRRRR   O     O  RRRRRR       #       #       #      |
|     E        R   R    R   R    O     O  R   R                               |
|     E        R    R   R    R   O     O  R    R      ###     ###     ###     |
|     EEEEEEE  R     R  R     R  OOOOOOO  R     R     ###     ###     ###     |
|                                                                             |
|     ZBRENT: fatal error in bracketing                                       |
|      please rerun with smaller EDIFF, or copy CONTCAR                       |
|      to POSCAR and continue                                                 |
|                                                                             |
|       ---->  I REFUSE TO CONTINUE WITH THIS SICK JOB ... BYE!!! <----       |
|                                                                             |
 -----------------------------------------------------------------------------

1
1
1
1
1
1
1
1
1
1
1
1
1
1
1
1
1
--------------------------------------------------------------------------
Primary job  terminated normally, but 1 process returned
a non-zero exit code. Per user-direction, the job has been aborted.
--------------------------------------------------------------------------
1
1
1
1
1
1
1
--------------------------------------------------------------------------
mpirun detected that one or more processes exited with non-zero status, thus causing
the job to be terminated. The first process to do so was:

  Process name: [[18697,1],3]
  Exit code:    1
--------------------------------------------------------------------------
