Pt cube particle                        
           1
    10.000000    0.000000    0.000000
     0.000000   10.000000    0.000000
     0.000000    0.000000   10.000000
   H 
     2
Direct configuration=     1
   0.50000000  0.50000000  0.50000000
   0.57400000  0.50000000  0.50000000
Direct configuration=     2
   0.49951628  0.50000000  0.50000000
   0.57448372  0.50000000  0.50000000
Direct configuration=     3
   0.49934849  0.50000000  0.50000000
   0.57465151  0.50000000  0.50000000
Direct configuration=     4
   0.49933118  0.50000000  0.50000000
   0.57466882  0.50000000  0.50000000
Direct configuration=     5
   0.49933639  0.50000000  0.50000000
   0.57466361  0.50000000  0.50000000
